   8   8   0   0
  0.1148773E+02  0.4674141E-09  0.4674141E-09  0.4776000E-09  0.5000000E-16
  1.000000000000000E-004
  CAR 
 matgen                                  
     27.24936731     -4.73964536  301     13.33686032      1.00000000
     -4.740  0.0000E+00  0.0000E+00  0.0000E+00  0.0000E+00
     -4.633  0.0000E+00  0.0000E+00  0.0000E+00  0.0000E+00
     -4.526  0.0000E+00  0.0000E+00  0.0000E+00  0.0000E+00
     -4.420  0.0000E+00  0.0000E+00  0.0000E+00  0.0000E+00
     -4.313  0.0000E+00  0.0000E+00  0.0000E+00  0.0000E+00
     -4.206  0.0000E+00  0.0000E+00  0.0000E+00  0.0000E+00
     -4.100  0.0000E+00  0.0000E+00  0.0000E+00  0.0000E+00
     -3.993  0.0000E+00  0.0000E+00  0.0000E+00  0.0000E+00
     -3.887  0.0000E+00  0.0000E+00  0.0000E+00  0.0000E+00
     -3.780  0.0000E+00  0.0000E+00  0.0000E+00  0.0000E+00
     -3.673  0.0000E+00  0.0000E+00  0.0000E+00  0.0000E+00
     -3.567  0.1844E-15  0.9761E-16  0.1966E-16  0.1041E-16
     -3.460  0.7822E-07  0.5375E-07  0.8341E-08  0.5731E-08
     -3.353  0.5368E-02  0.4530E-02  0.5724E-03  0.4831E-03
     -3.247  0.1634E+00  0.1610E+00  0.1799E-01  0.1765E-01
     -3.140  0.2664E-01  0.2987E-01  0.2083E-01  0.2083E-01
     -3.034  0.3821E-05  0.5223E-05  0.2083E-01  0.2083E-01
     -2.927  0.2789E-06  0.1914E-06  0.2083E-01  0.2083E-01
     -2.820  0.2176E-01  0.1828E-01  0.2315E-01  0.2278E-01
     -2.714  0.8960E+00  0.8755E+00  0.1187E+00  0.1161E+00
     -2.607  0.3407E+00  0.3565E+00  0.1550E+00  0.1541E+00
     -2.500  0.2998E+00  0.3070E+00  0.1870E+00  0.1869E+00
     -2.394  0.4814E-02  0.5798E-02  0.1875E+00  0.1875E+00
     -2.287  0.2771E-07  0.4101E-07  0.1875E+00  0.1875E+00
     -2.181  0.1426E-03  0.1065E-03  0.1875E+00  0.1875E+00
     -2.074  0.4188E+00  0.3779E+00  0.2322E+00  0.2278E+00
     -1.967  0.1861E+01  0.1891E+01  0.4306E+00  0.4295E+00
     -1.861  0.6469E-01  0.7547E-01  0.4375E+00  0.4375E+00
     -1.754  0.5446E-01  0.4833E-01  0.4433E+00  0.4427E+00
     -1.647  0.6757E+00  0.6578E+00  0.5154E+00  0.5128E+00
     -1.541  0.4406E+00  0.4643E+00  0.5623E+00  0.5623E+00
     -1.434  0.1531E-02  0.1920E-02  0.5625E+00  0.5625E+00
     -1.327  0.4228E-02  0.3575E-02  0.5630E+00  0.5629E+00
     -1.221  0.1940E+00  0.1864E+00  0.5836E+00  0.5828E+00
     -1.114  0.7060E+00  0.7038E+00  0.6589E+00  0.6578E+00
     -1.008  0.5943E+00  0.5745E+00  0.7223E+00  0.7191E+00
     -0.901  0.1646E+01  0.1653E+01  0.8978E+00  0.8954E+00
     -0.794  0.3080E+00  0.3254E+00  0.9306E+00  0.9301E+00
     -0.688  0.6430E-01  0.6975E-01  0.9375E+00  0.9375E+00
     -0.581  0.1045E+00  0.9554E-01  0.9486E+00  0.9477E+00
     -0.474  0.1103E+01  0.1057E+01  0.1066E+01  0.1060E+01
     -0.368  0.1132E+01  0.1185E+01  0.1187E+01  0.1187E+01
     -0.261  0.5483E-02  0.6808E-02  0.1188E+01  0.1188E+01
     -0.155  0.4854E-01  0.4271E-01  0.1193E+01  0.1192E+01
     -0.048  0.3376E+00  0.3398E+00  0.1229E+01  0.1228E+01
      0.059  0.1332E+01  0.1273E+01  0.1371E+01  0.1364E+01
      0.165  0.1014E+01  0.1076E+01  0.1479E+01  0.1479E+01
      0.272  0.1054E+00  0.9700E-01  0.1490E+01  0.1489E+01
      0.379  0.8130E+00  0.8008E+00  0.1577E+01  0.1574E+01
      0.485  0.2569E+00  0.2782E+00  0.1604E+01  0.1604E+01
      0.592  0.1322E+00  0.1184E+00  0.1618E+01  0.1617E+01
      0.698  0.6832E+00  0.6883E+00  0.1691E+01  0.1690E+01
      0.805  0.3450E+00  0.3517E+00  0.1728E+01  0.1728E+01
      0.912  0.8958E-01  0.8265E-01  0.1737E+01  0.1736E+01
      1.018  0.1200E+01  0.1162E+01  0.1865E+01  0.1860E+01
      1.125  0.1988E+01  0.1988E+01  0.2077E+01  0.2072E+01
      1.232  0.1412E+01  0.1452E+01  0.2228E+01  0.2227E+01
      1.338  0.1171E+01  0.1139E+01  0.2353E+01  0.2349E+01
      1.445  0.1278E+01  0.1271E+01  0.2489E+01  0.2484E+01
      1.552  0.1098E+01  0.1126E+01  0.2606E+01  0.2604E+01
      1.658  0.1407E+01  0.1405E+01  0.2756E+01  0.2754E+01
      1.765  0.4164E+00  0.4261E+00  0.2801E+01  0.2800E+01
      1.871  0.1143E+00  0.1236E+00  0.2813E+01  0.2813E+01
      1.978  0.2748E+00  0.2650E+00  0.2842E+01  0.2841E+01
      2.085  0.2083E+00  0.2058E+00  0.2864E+01  0.2863E+01
      2.191  0.1357E+01  0.1354E+01  0.3009E+01  0.3007E+01
      2.298  0.1111E+00  0.1271E+00  0.3021E+01  0.3021E+01
      2.405  0.1827E+00  0.1658E+00  0.3040E+01  0.3039E+01
      2.511  0.5902E+00  0.6053E+00  0.3103E+01  0.3103E+01
      2.618  0.1255E-01  0.1367E-01  0.3105E+01  0.3105E+01
      2.724  0.2005E+00  0.1941E+00  0.3126E+01  0.3125E+01
      2.831  0.1837E+00  0.1904E+00  0.3146E+01  0.3146E+01
      2.938  0.3931E-02  0.4073E-02  0.3146E+01  0.3146E+01
      3.044  0.4795E+00  0.4496E+00  0.3197E+01  0.3194E+01
      3.151  0.1934E+01  0.1925E+01  0.3403E+01  0.3399E+01
      3.258  0.1283E+01  0.1281E+01  0.3540E+01  0.3536E+01
      3.364  0.2040E+01  0.2015E+01  0.3758E+01  0.3751E+01
      3.471  0.1597E+01  0.1639E+01  0.3928E+01  0.3925E+01
      3.577  0.4797E+00  0.5024E+00  0.3979E+01  0.3979E+01
      3.684  0.8892E+00  0.8261E+00  0.4074E+01  0.4067E+01
      3.791  0.1533E+01  0.1585E+01  0.4237E+01  0.4236E+01
      3.897  0.1151E+01  0.1104E+01  0.4360E+01  0.4354E+01
      4.004  0.2186E+01  0.2229E+01  0.4593E+01  0.4592E+01
      4.111  0.1712E+00  0.1772E+00  0.4611E+01  0.4610E+01
      4.217  0.1364E+01  0.1352E+01  0.4757E+01  0.4755E+01
      4.324  0.1269E+01  0.1227E+01  0.4892E+01  0.4885E+01
      4.431  0.2422E+01  0.2469E+01  0.5151E+01  0.5149E+01
      4.537  0.9844E+00  0.9678E+00  0.5256E+01  0.5252E+01
      4.644  0.1664E+01  0.1679E+01  0.5433E+01  0.5431E+01
      4.750  0.6980E+00  0.6880E+00  0.5507E+01  0.5504E+01
      4.857  0.1240E+01  0.1262E+01  0.5640E+01  0.5639E+01
      4.964  0.5778E-01  0.6563E-01  0.5646E+01  0.5646E+01
      5.070  0.1020E-03  0.8209E-04  0.5646E+01  0.5646E+01
      5.177  0.2322E+00  0.2085E+00  0.5671E+01  0.5668E+01
      5.284  0.1588E+01  0.1588E+01  0.5840E+01  0.5837E+01
      5.390  0.5618E+00  0.5659E+00  0.5900E+01  0.5898E+01
      5.497  0.5370E+00  0.5548E+00  0.5957E+01  0.5957E+01
      5.603  0.1115E-01  0.1343E-01  0.5958E+01  0.5958E+01
      5.710  0.2971E-02  0.2425E-02  0.5959E+01  0.5959E+01
      5.817  0.4875E+00  0.4635E+00  0.6011E+01  0.6008E+01
      5.923  0.1556E+01  0.1524E+01  0.6177E+01  0.6171E+01
      6.030  0.2200E+01  0.2234E+01  0.6411E+01  0.6409E+01
      6.137  0.5812E+00  0.5984E+00  0.6473E+01  0.6473E+01
      6.243  0.2382E+00  0.2274E+00  0.6498E+01  0.6497E+01
      6.350  0.2242E+01  0.2194E+01  0.6738E+01  0.6731E+01
      6.457  0.1528E+01  0.1574E+01  0.6901E+01  0.6899E+01
      6.563  0.1573E+01  0.1525E+01  0.7068E+01  0.7061E+01
      6.670  0.1573E+01  0.1609E+01  0.7236E+01  0.7233E+01
      6.776  0.1016E+01  0.1030E+01  0.7344E+01  0.7343E+01
      6.883  0.9428E+00  0.9128E+00  0.7445E+01  0.7440E+01
      6.990  0.1504E+01  0.1536E+01  0.7605E+01  0.7604E+01
      7.096  0.1341E+01  0.1329E+01  0.7748E+01  0.7745E+01
      7.203  0.2350E+00  0.2574E+00  0.7773E+01  0.7773E+01
      7.310  0.1037E+01  0.1005E+01  0.7884E+01  0.7880E+01
      7.416  0.7433E+00  0.7587E+00  0.7963E+01  0.7961E+01
      7.523  0.1612E+01  0.1588E+01  0.8135E+01  0.8130E+01
      7.629  0.2386E+01  0.2385E+01  0.8389E+01  0.8385E+01
      7.736  0.8370E+00  0.8812E+00  0.8479E+01  0.8479E+01
      7.843  0.5691E-01  0.5219E-01  0.8485E+01  0.8484E+01
      7.949  0.1466E+01  0.1414E+01  0.8641E+01  0.8635E+01
      8.056  0.1465E+01  0.1508E+01  0.8797E+01  0.8796E+01
      8.163  0.1074E+01  0.1005E+01  0.8912E+01  0.8903E+01
      8.269  0.3851E+01  0.3892E+01  0.9322E+01  0.9318E+01
      8.376  0.1033E+01  0.1070E+01  0.9432E+01  0.9432E+01
      8.482  0.5427E-01  0.5780E-01  0.9438E+01  0.9438E+01
      8.589  0.3460E+00  0.3341E+00  0.9475E+01  0.9474E+01
      8.696  0.7376E+00  0.7409E+00  0.9554E+01  0.9553E+01
      8.802  0.1965E+00  0.1915E+00  0.9575E+01  0.9573E+01
      8.909  0.2711E+01  0.2653E+01  0.9864E+01  0.9856E+01
      9.016  0.2123E+01  0.2168E+01  0.1009E+02  0.1009E+02
      9.122  0.5793E+00  0.5976E+00  0.1015E+02  0.1015E+02
      9.229  0.1473E+01  0.1449E+01  0.1031E+02  0.1031E+02
      9.336  0.1048E+01  0.1053E+01  0.1042E+02  0.1042E+02
      9.442  0.1327E+01  0.1325E+01  0.1056E+02  0.1056E+02
      9.549  0.1965E+01  0.1936E+01  0.1077E+02  0.1077E+02
      9.655  0.2091E+01  0.2124E+01  0.1099E+02  0.1099E+02
      9.762  0.1511E+01  0.1487E+01  0.1116E+02  0.1115E+02
      9.869  0.8856E+00  0.9323E+00  0.1125E+02  0.1125E+02
      9.975  0.1325E+01  0.1275E+01  0.1139E+02  0.1139E+02
     10.082  0.8297E+00  0.8794E+00  0.1148E+02  0.1148E+02
     10.189  0.1180E+01  0.1136E+01  0.1161E+02  0.1160E+02
     10.295  0.1891E+01  0.1851E+01  0.1181E+02  0.1180E+02
     10.402  0.2251E+01  0.2322E+01  0.1205E+02  0.1205E+02
     10.508  0.8947E+00  0.8993E+00  0.1214E+02  0.1214E+02
     10.615  0.2154E+00  0.2248E+00  0.1217E+02  0.1217E+02
     10.722  0.2492E+00  0.2201E+00  0.1219E+02  0.1219E+02
     10.828  0.1691E+01  0.1705E+01  0.1237E+02  0.1237E+02
     10.935  0.1377E+01  0.1336E+01  0.1252E+02  0.1251E+02
     11.042  0.1635E+01  0.1667E+01  0.1269E+02  0.1269E+02
     11.148  0.8571E+00  0.8530E+00  0.1279E+02  0.1278E+02
     11.255  0.1402E+01  0.1417E+01  0.1293E+02  0.1293E+02
     11.361  0.1712E+01  0.1663E+01  0.1312E+02  0.1311E+02
     11.468  0.2239E+01  0.2252E+01  0.1336E+02  0.1335E+02
     11.575  0.1313E+01  0.1360E+01  0.1350E+02  0.1350E+02
     11.681  0.6565E-01  0.6682E-01  0.1350E+02  0.1350E+02
     11.788  0.1053E+01  0.9852E+00  0.1362E+02  0.1361E+02
     11.895  0.3577E+01  0.3600E+01  0.1400E+02  0.1399E+02
     12.001  0.9016E+00  0.9419E+00  0.1409E+02  0.1409E+02
     12.108  0.3886E+00  0.3855E+00  0.1413E+02  0.1413E+02
     12.215  0.5609E+00  0.5560E+00  0.1419E+02  0.1419E+02
     12.321  0.1459E+01  0.1445E+01  0.1435E+02  0.1435E+02
     12.428  0.8228E+00  0.8334E+00  0.1444E+02  0.1444E+02
     12.534  0.1501E+01  0.1468E+01  0.1460E+02  0.1459E+02
     12.641  0.2034E+01  0.2068E+01  0.1481E+02  0.1481E+02
     12.748  0.1556E+01  0.1519E+01  0.1498E+02  0.1497E+02
     12.854  0.1694E+01  0.1741E+01  0.1516E+02  0.1516E+02
     12.961  0.8426E+00  0.8042E+00  0.1525E+02  0.1525E+02
     13.068  0.2511E+01  0.2491E+01  0.1552E+02  0.1551E+02
     13.174  0.1907E+01  0.1950E+01  0.1572E+02  0.1572E+02
     13.281  0.1127E+01  0.1086E+01  0.1584E+02  0.1584E+02
     13.387  0.3424E+01  0.3377E+01  0.1621E+02  0.1620E+02
     13.494  0.1373E+01  0.1485E+01  0.1635E+02  0.1635E+02
     13.601  0.7046E-01  0.6486E-01  0.1636E+02  0.1636E+02
     13.707  0.4339E+00  0.4216E+00  0.1641E+02  0.1641E+02
     13.814  0.2035E+01  0.2024E+01  0.1662E+02  0.1662E+02
     13.921  0.6851E+00  0.6778E+00  0.1670E+02  0.1669E+02
     14.027  0.1157E+01  0.1182E+01  0.1682E+02  0.1682E+02
     14.134  0.6472E+00  0.6204E+00  0.1689E+02  0.1689E+02
     14.241  0.2109E+01  0.2115E+01  0.1711E+02  0.1711E+02
     14.347  0.6765E+00  0.7030E+00  0.1719E+02  0.1719E+02
     14.454  0.1597E+01  0.1531E+01  0.1736E+02  0.1735E+02
     14.560  0.3727E+01  0.3716E+01  0.1775E+02  0.1775E+02
     14.667  0.1890E+01  0.1944E+01  0.1796E+02  0.1795E+02
     14.774  0.1416E+01  0.1380E+01  0.1811E+02  0.1810E+02
     14.880  0.3300E+01  0.3290E+01  0.1846E+02  0.1845E+02
     14.987  0.9677E+00  0.1042E+01  0.1856E+02  0.1856E+02
     15.094  0.1594E-02  0.2035E-02  0.1856E+02  0.1856E+02
     15.200  0.1778E+00  0.1588E+00  0.1858E+02  0.1858E+02
     15.307  0.1926E+01  0.1918E+01  0.1879E+02  0.1878E+02
     15.413  0.6022E+00  0.6109E+00  0.1885E+02  0.1885E+02
     15.520  0.1962E+01  0.1922E+01  0.1906E+02  0.1905E+02
     15.627  0.6127E+00  0.6699E+00  0.1913E+02  0.1913E+02
     15.733  0.7723E+00  0.7283E+00  0.1921E+02  0.1920E+02
     15.840  0.1691E+01  0.1712E+01  0.1939E+02  0.1939E+02
     15.947  0.7497E+00  0.7574E+00  0.1947E+02  0.1947E+02
     16.053  0.1344E+01  0.1304E+01  0.1961E+02  0.1961E+02
     16.160  0.1765E+01  0.1783E+01  0.1980E+02  0.1980E+02
     16.266  0.2221E+01  0.2238E+01  0.2004E+02  0.2003E+02
     16.373  0.1316E+01  0.1266E+01  0.2018E+02  0.2017E+02
     16.480  0.3567E+01  0.3573E+01  0.2056E+02  0.2055E+02
     16.586  0.2224E+01  0.2245E+01  0.2079E+02  0.2079E+02
     16.693  0.5593E+00  0.6054E+00  0.2085E+02  0.2085E+02
     16.800  0.6235E+00  0.5789E+00  0.2092E+02  0.2092E+02
     16.906  0.2367E+01  0.2347E+01  0.2117E+02  0.2117E+02
     17.013  0.4771E+01  0.4713E+01  0.2168E+02  0.2167E+02
     17.120  0.2366E+01  0.2478E+01  0.2193E+02  0.2193E+02
     17.226  0.1086E+01  0.1064E+01  0.2205E+02  0.2205E+02
     17.333  0.1068E+01  0.1062E+01  0.2216E+02  0.2216E+02
     17.439  0.2249E+01  0.2246E+01  0.2240E+02  0.2240E+02
     17.546  0.1137E+01  0.1153E+01  0.2252E+02  0.2252E+02
     17.653  0.6383E+00  0.6536E+00  0.2259E+02  0.2259E+02
     17.759  0.8108E+00  0.7984E+00  0.2268E+02  0.2268E+02
     17.866  0.2649E+01  0.2609E+01  0.2296E+02  0.2296E+02
     17.973  0.2116E+01  0.2135E+01  0.2319E+02  0.2318E+02
     18.079  0.1215E+01  0.1224E+01  0.2332E+02  0.2331E+02
     18.186  0.3007E+01  0.2993E+01  0.2364E+02  0.2363E+02
     18.292  0.1121E+01  0.1150E+01  0.2376E+02  0.2376E+02
     18.399  0.2156E+01  0.2125E+01  0.2399E+02  0.2398E+02
     18.506  0.1805E+01  0.1825E+01  0.2418E+02  0.2418E+02
     18.612  0.1663E+01  0.1661E+01  0.2436E+02  0.2435E+02
     18.719  0.1482E+01  0.1499E+01  0.2451E+02  0.2451E+02
     18.826  0.1331E+01  0.1317E+01  0.2466E+02  0.2465E+02
     18.932  0.1146E+01  0.1132E+01  0.2478E+02  0.2477E+02
     19.039  0.7888E+00  0.8244E+00  0.2486E+02  0.2486E+02
     19.145  0.7627E+00  0.7393E+00  0.2494E+02  0.2494E+02
     19.252  0.2881E+01  0.2846E+01  0.2525E+02  0.2524E+02
     19.359  0.2569E+01  0.2591E+01  0.2553E+02  0.2552E+02
     19.465  0.2033E+01  0.2006E+01  0.2574E+02  0.2573E+02
     19.572  0.1160E+01  0.1217E+01  0.2587E+02  0.2586E+02
     19.679  0.3244E+00  0.3335E+00  0.2590E+02  0.2590E+02
     19.785  0.8772E+00  0.8495E+00  0.2599E+02  0.2599E+02
     19.892  0.2662E+01  0.2601E+01  0.2628E+02  0.2627E+02
     19.999  0.2878E+01  0.2939E+01  0.2659E+02  0.2658E+02
     20.105  0.7518E+00  0.7525E+00  0.2667E+02  0.2666E+02
     20.212  0.1978E+01  0.1979E+01  0.2688E+02  0.2687E+02
     20.318  0.1687E+01  0.1668E+01  0.2706E+02  0.2705E+02
     20.425  0.1796E+01  0.1825E+01  0.2725E+02  0.2724E+02
     20.532  0.5532E+00  0.5412E+00  0.2731E+02  0.2730E+02
     20.638  0.2348E+01  0.2335E+01  0.2756E+02  0.2755E+02
     20.745  0.1456E+01  0.1443E+01  0.2771E+02  0.2771E+02
     20.852  0.2159E+01  0.2188E+01  0.2794E+02  0.2794E+02
     20.958  0.1225E+01  0.1227E+01  0.2807E+02  0.2807E+02
     21.065  0.9178E+00  0.9242E+00  0.2817E+02  0.2817E+02
     21.171  0.2189E+01  0.2155E+01  0.2840E+02  0.2840E+02
     21.278  0.2507E+01  0.2502E+01  0.2867E+02  0.2866E+02
     21.385  0.1424E+01  0.1463E+01  0.2882E+02  0.2882E+02
     21.491  0.1015E+01  0.1008E+01  0.2893E+02  0.2893E+02
     21.598  0.7714E+00  0.7844E+00  0.2901E+02  0.2901E+02
     21.705  0.1905E+01  0.1870E+01  0.2922E+02  0.2921E+02
     21.811  0.1804E+01  0.1801E+01  0.2941E+02  0.2940E+02
     21.918  0.1845E+01  0.1884E+01  0.2961E+02  0.2960E+02
     22.024  0.1313E+01  0.1295E+01  0.2975E+02  0.2974E+02
     22.131  0.1750E+01  0.1755E+01  0.2993E+02  0.2993E+02
     22.238  0.2045E+01  0.2011E+01  0.3015E+02  0.3014E+02
     22.344  0.3204E+01  0.3228E+01  0.3049E+02  0.3049E+02
     22.451  0.2143E+01  0.2102E+01  0.3072E+02  0.3071E+02
     22.558  0.2069E+01  0.2118E+01  0.3094E+02  0.3094E+02
     22.664  0.1658E+01  0.1624E+01  0.3112E+02  0.3111E+02
     22.771  0.1762E+01  0.1813E+01  0.3131E+02  0.3130E+02
     22.878  0.3434E+00  0.3516E+00  0.3134E+02  0.3134E+02
     22.984  0.6740E+00  0.6711E+00  0.3141E+02  0.3141E+02
     23.091  0.7283E+00  0.7263E+00  0.3149E+02  0.3149E+02
     23.197  0.5415E+00  0.4174E+00  0.3155E+02  0.3154E+02
     23.304  0.1195E+01  0.1231E+01  0.3168E+02  0.3167E+02
     23.411  0.1417E+01  0.1512E+01  0.3183E+02  0.3183E+02
     23.517  0.1189E+00  0.1154E+00  0.3184E+02  0.3184E+02
     23.624  0.3086E+00  0.3172E+00  0.3187E+02  0.3187E+02
     23.731  0.9002E-01  0.8544E-01  0.3188E+02  0.3188E+02
     23.837  0.4557E+00  0.4545E+00  0.3193E+02  0.3193E+02
     23.944  0.4643E-01  0.5393E-01  0.3194E+02  0.3194E+02
     24.050  0.5068E-05  0.7553E-05  0.3194E+02  0.3194E+02
     24.157  0.9974E-13  0.1942E-12  0.3194E+02  0.3194E+02
     24.264  0.0000E+00  0.0000E+00  0.3194E+02  0.3194E+02
     24.370  0.0000E+00  0.0000E+00  0.3194E+02  0.3194E+02
     24.477  0.0000E+00  0.0000E+00  0.3194E+02  0.3194E+02
     24.584  0.0000E+00  0.0000E+00  0.3194E+02  0.3194E+02
     24.690  0.0000E+00  0.0000E+00  0.3194E+02  0.3194E+02
     24.797  0.0000E+00  0.0000E+00  0.3194E+02  0.3194E+02
     24.904  0.0000E+00  0.0000E+00  0.3194E+02  0.3194E+02
     25.010  0.0000E+00  0.0000E+00  0.3194E+02  0.3194E+02
     25.117  0.0000E+00  0.0000E+00  0.3194E+02  0.3194E+02
     25.223  0.0000E+00  0.0000E+00  0.3194E+02  0.3194E+02
     25.330  0.1085E-16  0.1085E-16  0.3194E+02  0.3194E+02
     25.437  0.1651E-07  0.9720E-08  0.3194E+02  0.3194E+02
     25.543  0.2617E-02  0.2031E-02  0.3194E+02  0.3194E+02
     25.650  0.1515E+00  0.1464E+00  0.3195E+02  0.3195E+02
     25.757  0.1167E+00  0.1147E+00  0.3197E+02  0.3197E+02
     25.863  0.3087E+00  0.3150E+00  0.3200E+02  0.3200E+02
     25.970  0.6655E-02  0.8012E-02  0.3200E+02  0.3200E+02
     26.076  0.6343E-07  0.9509E-07  0.3200E+02  0.3200E+02
     26.183  0.8677E-16  0.1952E-15  0.3200E+02  0.3200E+02
     26.290  0.0000E+00  0.0000E+00  0.3200E+02  0.3200E+02
     26.396  0.0000E+00  0.0000E+00  0.3200E+02  0.3200E+02
     26.503  0.0000E+00  0.0000E+00  0.3200E+02  0.3200E+02
     26.610  0.0000E+00  0.0000E+00  0.3200E+02  0.3200E+02
     26.716  0.0000E+00  0.0000E+00  0.3200E+02  0.3200E+02
     26.823  0.0000E+00  0.0000E+00  0.3200E+02  0.3200E+02
     26.929  0.0000E+00  0.0000E+00  0.3200E+02  0.3200E+02
     27.036  0.0000E+00  0.0000E+00  0.3200E+02  0.3200E+02
     27.143  0.0000E+00  0.0000E+00  0.3200E+02  0.3200E+02
     27.249  0.0000E+00  0.0000E+00  0.3200E+02  0.3200E+02
