    8    8    1    2
  0.1148773E+02  0.4674141E-09  0.4674141E-09  0.4776000E-09  0.5000000E-16
  1.000000000000000E-004
  CAR 
 matgen                                  
     32     14     32
 
  0.3742002E-15  0.3742002E-15  0.3742002E-15  0.2083333E-01
    1       -3.285599     -3.283028   1.000000   1.000000
    2        2.752452      2.754539   1.000000   1.000000
    3        3.185582      3.188646   1.000000   1.000000
    4        4.583567      4.586484   1.000000   1.000000
    5        5.193669      5.195510   1.000000   1.000000
    6        5.194492      5.196791   1.000000   1.000000
    7        5.310041      5.312231   1.000000   1.000000
    8        5.403283      5.406153   1.000000   1.000000
    9        5.804305      5.807296   1.000000   1.000000
   10       10.166366     10.168690   1.000000   1.000000
   11       10.303127     10.305659   1.000000   1.000000
   12       10.316061     10.317523   1.000000   1.000000
   13       10.448666     10.451605   1.000000   1.000000
   14       10.550969     10.554166   1.000000   1.000000
   15       10.857906     10.859686   1.000000   1.000000
   16       11.120937     11.124041   1.000000   1.000000
   17       11.718962     11.721780   1.000000   1.000000
   18       12.212694     12.215163   1.000000   1.000000
   19       12.498224     12.500503   1.000000   1.000000
   20       12.816256     12.818708   1.000000   1.000000
   21       12.962536     12.966489   1.000000   1.000000
   22       19.455433     19.457342   0.000000   0.000000
   23       20.166560     20.169291   0.000000   0.000000
   24       20.667390     20.670138   0.000000   0.000000
   25       21.193171     21.195572   0.000000   0.000000
   26       21.388214     21.390444   0.000000   0.000000
   27       21.979517     21.982416   0.000000   0.000000
   28       22.716809     22.719833   0.000000   0.000000
   29       23.743051     23.744915   0.000000   0.000000
   30       25.621584     25.625017   0.000000   0.000000
   31       25.782454     25.785020   0.000000   0.000000
   32       25.792533     25.795321   0.000000   0.000000
 
  0.2500000E+00  0.3330669E-15  0.3742002E-15  0.8333333E-01
    1       -2.751599     -2.749031   1.000000   1.000000
    2        1.450905      1.453440   1.000000   1.000000
    3        3.269468      3.271561   1.000000   1.000000
    4        3.687792      3.690350   1.000000   1.000000
    5        3.696268      3.699326   1.000000   1.000000
    6        3.891336      3.893878   1.000000   1.000000
    7        7.295692      7.297742   1.000000   1.000000
    8        7.476110      7.478414   1.000000   1.000000
    9        7.640284      7.643168   1.000000   1.000000
   10        8.212229      8.214870   1.000000   1.000000
   11        9.300462      9.302860   1.000000   1.000000
   12        9.424717      9.427233   1.000000   1.000000
   13        9.750374      9.753005   1.000000   1.000000
   14       10.164895     10.167586   1.000000   1.000000
   15       10.309875     10.312685   1.000000   1.000000
   16       13.057881     13.059839   1.000000   1.000000
   17       13.296445     13.299208   0.873506   0.856555
   18       14.205894     14.208377   0.000000   0.000000
   19       14.571082     14.573879   0.000000   0.000000
   20       15.232800     15.235227   0.000000   0.000000
   21       15.763691     15.766588   0.000000   0.000000
   22       16.098017     16.100778   0.000000   0.000000
   23       16.989468     16.992428   0.000000   0.000000
   24       20.808886     20.811256   0.000000   0.000000
   25       20.940737     20.943203   0.000000   0.000000
   26       21.132133     21.134874   0.000000   0.000000
   27       21.199773     21.202737   0.000000   0.000000
   28       21.813488     21.816007   0.000000   0.000000
   29       21.963295     21.965618   0.000000   0.000000
   30       22.428618     22.430695   0.000000   0.000000
   31       22.557939     22.560736   0.000000   0.000000
   32       23.353401     23.355967   0.000000   0.000000
 
  0.5000000E+00  0.2775558E-15  0.3742002E-15  0.4166667E-01
    1       -1.160401     -1.157845   1.000000   1.000000
    2       -1.160401     -1.157845   1.000000   1.000000
    3        3.269309      3.271870   1.000000   1.000000
    4        3.269309      3.271870   1.000000   1.000000
    5        4.803999      4.806118   1.000000   1.000000
    6        4.803999      4.806118   1.000000   1.000000
    7        5.221057      5.224037   1.000000   1.000000
    8        5.221057      5.224037   1.000000   1.000000
    9        8.863698      8.866147   1.000000   1.000000
   10        8.863698      8.866147   1.000000   1.000000
   11        9.702467      9.704981   1.000000   1.000000
   12        9.702467      9.704981   1.000000   1.000000
   13       10.934028     10.936711   1.000000   1.000000
   14       10.934028     10.936711   1.000000   1.000000
   15       11.782770     11.785193   1.000000   1.000000
   16       11.782770     11.785193   1.000000   1.000000
   17       14.847449     14.849825   0.000000   0.000000
   18       14.847449     14.849825   0.000000   0.000000
   19       16.557578     16.560381   0.000000   0.000000
   20       16.557578     16.560381   0.000000   0.000000
   21       16.809422     16.812153   0.000000   0.000000
   22       16.809422     16.812153   0.000000   0.000000
   23       17.912887     17.915726   0.000000   0.000000
   24       17.912887     17.915726   0.000000   0.000000
   25       18.651439     18.653905   0.000000   0.000000
   26       18.651439     18.653905   0.000000   0.000000
   27       20.616545     20.618972   0.000000   0.000000
   28       20.616545     20.618972   0.000000   0.000000
   29       21.495999     21.499300   0.000000   0.000000
   30       21.495999     21.499300   0.000000   0.000000
   31       22.219749     22.222016   0.000000   0.000000
   32       22.219749     22.222016   0.000000   0.000000
 
  0.2500000E+00  0.2500000E+00  0.3742002E-15  0.4166667E-01
    1       -1.715448     -1.712886   1.000000   1.000000
    2        0.295688      0.298136   1.000000   1.000000
    3        0.739011      0.741687   1.000000   1.000000
    4        4.276663      4.278750   1.000000   1.000000
    5        4.677541      4.680583   1.000000   1.000000
    6        6.099219      6.101140   1.000000   1.000000
    7        6.720797      6.723137   1.000000   1.000000
    8        6.747537      6.750630   1.000000   1.000000
    9        6.846660      6.848790   1.000000   1.000000
   10        6.866842      6.869740   1.000000   1.000000
   11        7.310073      7.313084   1.000000   1.000000
   12       10.318856     10.321023   1.000000   1.000000
   13       12.182095     12.184243   1.000000   1.000000
   14       12.439040     12.440737   1.000000   1.000000
   15       12.693285     12.696009   1.000000   1.000000
   16       12.987735     12.990506   1.000000   1.000000
   17       13.001815     13.004737   1.000000   1.000000
   18       13.397079     13.400369   0.044261   0.036223
   19       16.515982     16.518286   0.000000   0.000000
   20       16.788115     16.791600   0.000000   0.000000
   21       17.181498     17.184034   0.000000   0.000000
   22       17.408680     17.410635   0.000000   0.000000
   23       17.572674     17.575041   0.000000   0.000000
   24       17.915088     17.917078   0.000000   0.000000
   25       19.115545     19.118539   0.000000   0.000000
   26       19.189735     19.192500   0.000000   0.000000
   27       19.196401     19.200157   0.000000   0.000000
   28       19.259244     19.261915   0.000000   0.000000
   29       22.433791     22.436037   0.000000   0.000000
   30       22.907680     22.909689   0.000000   0.000000
   31       22.940379     22.943355   0.000000   0.000000
   32       23.211962     23.265307   0.000000   0.000000
 
  0.5000000E+00  0.2500000E+00  0.3742002E-15  0.8333333E-01
    1       -1.642736     -1.640187   1.000000   1.000000
    2        0.362471      0.365022   1.000000   1.000000
    3        0.625738      0.628327   1.000000   1.000000
    4        4.329199      4.331259   1.000000   1.000000
    5        4.770593      4.773656   1.000000   1.000000
    6        6.272396      6.274472   1.000000   1.000000
    7        6.402845      6.405358   1.000000   1.000000
    8        6.550443      6.552954   1.000000   1.000000
    9        6.666155      6.668918   1.000000   1.000000
   10        6.915500      6.918503   1.000000   1.000000
   11        6.920299      6.922559   1.000000   1.000000
   12       11.054167     11.056595   1.000000   1.000000
   13       11.817272     11.819872   1.000000   1.000000
   14       12.697859     12.700496   1.000000   1.000000
   15       12.759121     12.761656   1.000000   1.000000
   16       12.974462     12.976047   1.000000   1.000000
   17       13.304805     13.308596   0.817706   0.787980
   18       13.361708     13.364347   0.241094   0.218453
   19       16.188042     16.190425   0.000000   0.000000
   20       16.858938     16.860820   0.000000   0.000000
   21       16.938868     16.941589   0.000000   0.000000
   22       17.204358     17.207495   0.000000   0.000000
   23       17.998626     18.001021   0.000000   0.000000
   24       18.448027     18.450630   0.000000   0.000000
   25       19.201946     19.204246   0.000000   0.000000
   26       19.453557     19.456760   0.000000   0.000000
   27       19.820276     19.823032   0.000000   0.000000
   28       20.134811     20.137104   0.000000   0.000000
   29       21.848320     21.850382   0.000000   0.000000
   30       22.429117     22.432255   0.000000   0.000000
   31       22.469647     22.471890   0.000000   0.000000
   32       22.678616     22.680981   0.000000   0.000000
 
 -0.2500000E+00  0.2500000E+00  0.3742002E-15  0.4166667E-01
    1       -2.725601     -2.723035   1.000000   1.000000
    2        1.744773      1.747345   1.000000   1.000000
    3        3.176860      3.179339   1.000000   1.000000
    4        3.354462      3.356739   1.000000   1.000000
    5        3.683549      3.685902   1.000000   1.000000
    6        3.726004      3.729068   1.000000   1.000000
    7        7.553630      7.556155   1.000000   1.000000
    8        7.645321      7.647452   1.000000   1.000000
    9        7.885581      7.887789   1.000000   1.000000
   10        7.987289      7.990345   1.000000   1.000000
   11        8.851423      8.853048   1.000000   1.000000
   12        8.956767      8.959747   1.000000   1.000000
   13        9.628622      9.631399   1.000000   1.000000
   14       10.340474     10.343101   1.000000   1.000000
   15       10.749909     10.753269   1.000000   1.000000
   16       12.939795     12.942633   1.000000   1.000000
   17       13.104491     13.106007   1.000000   1.000000
   18       14.234465     14.236898   0.000000   0.000000
   19       14.786546     14.789917   0.000000   0.000000
   20       15.775260     15.777954   0.000000   0.000000
   21       16.379763     16.382563   0.000000   0.000000
   22       16.433176     16.435865   0.000000   0.000000
   23       17.073613     17.075962   0.000000   0.000000
   24       19.962383     19.964315   0.000000   0.000000
   25       21.040644     21.043077   0.000000   0.000000
   26       21.127423     21.129934   0.000000   0.000000
   27       21.358290     21.360171   0.000000   0.000000
   28       21.613019     21.615729   0.000000   0.000000
   29       22.156710     22.159377   0.000000   0.000000
   30       22.459718     22.462254   0.000000   0.000000
   31       23.547712     23.551253   0.000000   0.000000
   32       23.795113     23.798334   0.000000   0.000000
 
  0.5000000E+00  0.5000000E+00  0.3742002E-15  0.2083333E-01
    1       -1.256028     -1.253579   1.000000   1.000000
    2       -0.809984     -0.807287   1.000000   1.000000
    3        2.690402      2.693070   1.000000   1.000000
    4        3.143328      3.145694   1.000000   1.000000
    5        4.629855      4.631790   1.000000   1.000000
    6        5.246900      5.250014   1.000000   1.000000
    7        5.278129      5.280427   1.000000   1.000000
    8        5.437371      5.440378   1.000000   1.000000
    9        8.286603      8.289254   1.000000   1.000000
   10        8.342722      8.344323   1.000000   1.000000
   11        9.162904      9.165648   1.000000   1.000000
   12       10.000978     10.003908   1.000000   1.000000
   13       10.902011     10.904258   1.000000   1.000000
   14       11.432165     11.434128   1.000000   1.000000
   15       11.914283     11.917822   1.000000   1.000000
   16       11.927474     11.930527   1.000000   1.000000
   17       15.433240     15.435827   0.000000   0.000000
   18       15.980424     15.983343   0.000000   0.000000
   19       16.466711     16.468643   0.000000   0.000000
   20       16.523770     16.526901   0.000000   0.000000
   21       16.839440     16.840534   0.000000   0.000000
   22       16.943638     16.946481   0.000000   0.000000
   23       17.210727     17.212726   0.000000   0.000000
   24       18.223184     18.226273   0.000000   0.000000
   25       19.585283     19.587984   0.000000   0.000000
   26       19.708487     19.712173   0.000000   0.000000
   27       21.076337     21.079378   0.000000   0.000000
   28       21.176598     21.178820   0.000000   0.000000
   29       21.256921     21.259008   0.000000   0.000000
   30       21.559944     21.562353   0.000000   0.000000
   31       21.888301     21.889870   0.000000   0.000000
   32       22.126276     22.128555   0.000000   0.000000
 
  0.3742002E-15  0.3742002E-15  0.3333333E+00  0.4166667E-01
    1       -2.579858     -2.577292   1.000000   1.000000
    2       -0.481003     -0.478454   1.000000   1.000000
    3        5.233361      5.236284   1.000000   1.000000
    4        5.856167      5.858011   1.000000   1.000000
    5        5.859132      5.861372   1.000000   1.000000
    6        5.968351      5.970545   1.000000   1.000000
    7        6.031967      6.034722   1.000000   1.000000
    8        6.482450      6.485426   1.000000   1.000000
    9        7.261258      7.264211   1.000000   1.000000
   10        7.593320      7.595980   1.000000   1.000000
   11        7.923892      7.926186   1.000000   1.000000
   12        7.933058      7.934733   1.000000   1.000000
   13        7.935312      7.937859   1.000000   1.000000
   14        8.040497      8.043337   1.000000   1.000000
   15        8.556024      8.559076   1.000000   1.000000
   16       13.279152     13.282476   0.948684   0.938003
   17       15.393946     15.396060   0.000000   0.000000
   18       15.840268     15.842687   0.000000   0.000000
   19       15.901206     15.903255   0.000000   0.000000
   20       15.970387     15.972799   0.000000   0.000000
   21       16.360160     16.362976   0.000000   0.000000
   22       16.449330     16.452784   0.000000   0.000000
   23       20.746944     20.749117   0.000000   0.000000
   24       20.855179     20.857559   0.000000   0.000000
   25       20.861856     20.864192   0.000000   0.000000
   26       20.970259     20.972734   0.000000   0.000000
   27       21.277365     21.280189   0.000000   0.000000
   28       21.369098     21.371389   0.000000   0.000000
   29       21.848470     21.851295   0.000000   0.000000
   30       22.483908     22.486392   0.000000   0.000000
   31       22.596044     22.598849   0.000000   0.000000
   32       23.159297     23.164935   0.000000   0.000000
 
  0.2500000E+00  0.3330669E-15  0.3333333E+00  0.1666667E+00
    1       -2.048040     -2.045477   1.000000   1.000000
    2        0.043915      0.046460   1.000000   1.000000
    3        2.139409      2.141941   1.000000   1.000000
    4        4.171002      4.173515   1.000000   1.000000
    5        4.356171      4.358732   1.000000   1.000000
    6        4.571674      4.574212   1.000000   1.000000
    7        6.340357      6.342860   1.000000   1.000000
    8        6.566136      6.568650   1.000000   1.000000
    9        8.174723      8.177306   1.000000   1.000000
   10        8.208148      8.210654   1.000000   1.000000
   11        8.867721      8.870356   1.000000   1.000000
   12        9.959882      9.962130   1.000000   1.000000
   13       10.295012     10.297493   1.000000   1.000000
   14       10.766627     10.769332   1.000000   1.000000
   15       11.861863     11.864342   1.000000   1.000000
   16       12.565236     12.568285   1.000000   1.000000
   17       13.938074     13.940495   0.000000   0.000000
   18       14.483158     14.485655   0.000000   0.000000
   19       14.877353     14.880019   0.000000   0.000000
   20       16.207547     16.210262   0.000000   0.000000
   21       16.960552     16.963118   0.000000   0.000000
   22       17.808386     17.811050   0.000000   0.000000
   23       18.130203     18.132986   0.000000   0.000000
   24       18.361257     18.363766   0.000000   0.000000
   25       18.794054     18.796521   0.000000   0.000000
   26       19.316963     19.319645   0.000000   0.000000
   27       19.968657     19.970922   0.000000   0.000000
   28       20.338799     20.341185   0.000000   0.000000
   29       20.755095     20.757934   0.000000   0.000000
   30       22.303470     22.306080   0.000000   0.000000
   31       22.672026     22.674646   0.000000   0.000000
   32       23.301697     23.304090   0.000000   0.000000
 
  0.5000000E+00  0.2775558E-15  0.3333333E+00  0.8333333E-01
    1       -0.463736     -0.461185   1.000000   1.000000
    2       -0.463736     -0.461185   1.000000   1.000000
    3        1.610675      1.613210   1.000000   1.000000
    4        1.610675      1.613210   1.000000   1.000000
    5        3.950065      3.952621   1.000000   1.000000
    6        3.950065      3.952621   1.000000   1.000000
    7        5.959803      5.962339   1.000000   1.000000
    8        5.959803      5.962339   1.000000   1.000000
    9        9.583880      9.586456   1.000000   1.000000
   10        9.583880      9.586456   1.000000   1.000000
   11       11.384211     11.386511   1.000000   1.000000
   12       11.384211     11.386511   1.000000   1.000000
   13       12.286626     12.289058   1.000000   1.000000
   14       12.286626     12.289058   1.000000   1.000000
   15       13.371455     13.374342   0.163918   0.144540
   16       13.371455     13.374342   0.163918   0.144540
   17       14.162746     14.165608   0.000000   0.000000
   18       14.162746     14.165608   0.000000   0.000000
   19       14.556657     14.558943   0.000000   0.000000
   20       14.556657     14.558943   0.000000   0.000000
   21       15.502957     15.505726   0.000000   0.000000
   22       15.502957     15.505726   0.000000   0.000000
   23       16.384441     16.386651   0.000000   0.000000
   24       16.384441     16.386651   0.000000   0.000000
   25       18.127972     18.130682   0.000000   0.000000
   26       18.127972     18.130682   0.000000   0.000000
   27       19.869216     19.872231   0.000000   0.000000
   28       19.869216     19.872231   0.000000   0.000000
   29       21.694381     21.696671   0.000000   0.000000
   30       21.694381     21.696671   0.000000   0.000000
   31       22.288347     22.290841   0.000000   0.000000
   32       22.288347     22.290841   0.000000   0.000000
 
  0.2500000E+00  0.2500000E+00  0.3333333E+00  0.8333333E-01
    1       -1.016265     -1.013708   1.000000   1.000000
    2        0.957318      0.959779   1.000000   1.000000
    3        1.094655      1.097180   1.000000   1.000000
    4        1.429100      1.431770   1.000000   1.000000
    5        3.040943      3.043379   1.000000   1.000000
    6        3.480544      3.483191   1.000000   1.000000
    7        7.438531      7.440713   1.000000   1.000000
    8        7.963908      7.966894   1.000000   1.000000
    9        9.026243      9.028720   1.000000   1.000000
   10        9.364734      9.366908   1.000000   1.000000
   11        9.781863      9.784831   1.000000   1.000000
   12       10.920471     10.922838   1.000000   1.000000
   13       11.324742     11.327147   1.000000   1.000000
   14       11.334064     11.336803   1.000000   1.000000
   15       12.473666     12.475723   1.000000   1.000000
   16       13.180163     13.182802   0.999995   0.999993
   17       13.763153     13.766075   0.000000   0.000000
   18       14.655257     14.657641   0.000000   0.000000
   19       15.482795     15.485474   0.000000   0.000000
   20       15.711704     15.714542   0.000000   0.000000
   21       16.876182     16.879366   0.000000   0.000000
   22       16.982255     16.984915   0.000000   0.000000
   23       17.528874     17.531321   0.000000   0.000000
   24       17.693931     17.696485   0.000000   0.000000
   25       18.201116     18.203303   0.000000   0.000000
   26       18.668638     18.671089   0.000000   0.000000
   27       19.331467     19.334081   0.000000   0.000000
   28       19.760873     19.763183   0.000000   0.000000
   29       20.151853     20.154409   0.000000   0.000000
   30       20.281235     20.284010   0.000000   0.000000
   31       21.129340     21.131413   0.000000   0.000000
   32       21.791142     21.793374   0.000000   0.000000
 
  0.5000000E+00  0.2500000E+00  0.3333333E+00  0.1666667E+00
    1       -0.943673     -0.941128   1.000000   1.000000
    2        1.033897      1.036434   1.000000   1.000000
    3        1.155824      1.158361   1.000000   1.000000
    4        1.315636      1.318220   1.000000   1.000000
    5        3.107022      3.109548   1.000000   1.000000
    6        3.369377      3.371946   1.000000   1.000000
    7        7.057377      7.059984   1.000000   1.000000
    8        7.554899      7.557136   1.000000   1.000000
    9        8.936239      8.938730   1.000000   1.000000
   10        9.192625      9.195345   1.000000   1.000000
   11        9.505523      9.507886   1.000000   1.000000
   12       11.190405     11.193273   1.000000   1.000000
   13       11.476889     11.479485   1.000000   1.000000
   14       11.821571     11.824262   1.000000   1.000000
   15       13.075652     13.078190   1.000000   1.000000
   16       13.766630     13.769279   0.000000   0.000000
   17       14.426804     14.429321   0.000000   0.000000
   18       14.782023     14.784571   0.000000   0.000000
   19       15.269636     15.271889   0.000000   0.000000
   20       16.053368     16.055941   0.000000   0.000000
   21       16.439200     16.442191   0.000000   0.000000
   22       17.037628     17.040182   0.000000   0.000000
   23       17.335291     17.337391   0.000000   0.000000
   24       17.418957     17.421251   0.000000   0.000000
   25       17.841478     17.844131   0.000000   0.000000
   26       18.562349     18.564823   0.000000   0.000000
   27       18.927876     18.930395   0.000000   0.000000
   28       19.448155     19.450728   0.000000   0.000000
   29       19.899095     19.901645   0.000000   0.000000
   30       20.560579     20.563285   0.000000   0.000000
   31       21.260540     21.263287   0.000000   0.000000
   32       22.072087     22.074818   0.000000   0.000000
 
 -0.2500000E+00  0.2500000E+00  0.3333333E+00  0.8333333E-01
    1       -2.022105     -2.019544   1.000000   1.000000
    2        0.070020      0.072563   1.000000   1.000000
    3        2.430249      2.432816   1.000000   1.000000
    4        3.908856      3.911531   1.000000   1.000000
    5        4.353535      4.355865   1.000000   1.000000
    6        4.474016      4.476571   1.000000   1.000000
    7        5.919223      5.921899   1.000000   1.000000
    8        6.315381      6.317628   1.000000   1.000000
    9        8.194625      8.197266   1.000000   1.000000
   10        8.299149      8.301739   1.000000   1.000000
   11        8.651225      8.653638   1.000000   1.000000
   12       10.180908     10.183568   1.000000   1.000000
   13       10.450841     10.453245   1.000000   1.000000
   14       10.977737     10.980354   1.000000   1.000000
   15       12.575595     12.578024   1.000000   1.000000
   16       12.784064     12.786864   1.000000   1.000000
   17       13.392591     13.396164   0.057479   0.046735
   18       14.509678     14.511576   0.000000   0.000000
   19       14.839147     14.841671   0.000000   0.000000
   20       16.583746     16.586397   0.000000   0.000000
   21       16.987375     16.989961   0.000000   0.000000
   22       17.964329     17.966703   0.000000   0.000000
   23       18.372479     18.374567   0.000000   0.000000
   24       18.469474     18.472045   0.000000   0.000000
   25       19.208770     19.211401   0.000000   0.000000
   26       19.231868     19.234268   0.000000   0.000000
   27       20.227863     20.230309   0.000000   0.000000
   28       20.402985     20.405771   0.000000   0.000000
   29       20.622169     20.624842   0.000000   0.000000
   30       21.664559     21.667421   0.000000   0.000000
   31       22.201222     22.203747   0.000000   0.000000
   32       23.046094     23.048602   0.000000   0.000000
 
  0.5000000E+00  0.5000000E+00  0.3333333E+00  0.4166667E-01
    1       -0.558680     -0.556235   1.000000   1.000000
    2       -0.113751     -0.111060   1.000000   1.000000
    3        1.512768      1.515201   1.000000   1.000000
    4        1.958482      1.961154   1.000000   1.000000
    5        3.380858      3.383528   1.000000   1.000000
    6        3.815926      3.818268   1.000000   1.000000
    7        5.401013      5.403705   1.000000   1.000000
    8        5.799675      5.801952   1.000000   1.000000
    9        9.566030      9.568740   1.000000   1.000000
   10        9.965739      9.968349   1.000000   1.000000
   11       11.525164     11.527367   1.000000   1.000000
   12       11.978577     11.980474   1.000000   1.000000
   13       12.088384     12.091189   1.000000   1.000000
   14       12.377696     12.380674   1.000000   1.000000
   15       12.778520     12.781431   1.000000   1.000000
   16       13.634181     13.636656   0.000000   0.000000
   17       14.053688     14.056817   0.000000   0.000000
   18       14.291847     14.293908   0.000000   0.000000
   19       14.517980     14.521405   0.000000   0.000000
   20       14.697183     14.699508   0.000000   0.000000
   21       15.803730     15.806262   0.000000   0.000000
   22       16.258149     16.259924   0.000000   0.000000
   23       16.519714     16.522279   0.000000   0.000000
   24       17.008876     17.011396   0.000000   0.000000
   25       18.286396     18.288849   0.000000   0.000000
   26       19.068281     19.070638   0.000000   0.000000
   27       19.561929     19.564366   0.000000   0.000000
   28       20.118275     20.120774   0.000000   0.000000
   29       21.432552     21.434842   0.000000   0.000000
   30       22.007591     22.009981   0.000000   0.000000
   31       22.227798     22.230017   0.000000   0.000000
   32       22.779499     22.782588   0.000000   0.000000
