 vasp.5.4.1 24Jun15 (build Nov 23 2015 09:58:10) complex                        
  
 executed on             LinuxIFC date 2020.05.13  18:18:28
 running on   96 total cores
 distrk:  each k-point on   96 cores,    1 groups
 distr:  one band on NCORES_PER_BAND=  12 cores,    8 groups


--------------------------------------------------------------------------------------------------------


 INCAR:
 POTCAR:    PAW_PBE Si 05Jan2001                  
 POTCAR:    PAW_PBE Si 05Jan2001                  
   VRHFIN =Si: s2p2                                                             
   LEXCH  = PE                                                                  
   EATOM  =   103.0669 eV,    7.5752 Ry                                         
                                                                                
   TITEL  = PAW_PBE Si 05Jan2001                                                
   LULTRA =        F    use ultrasoft PP ?                                      
   IUNSCR =        1    unscreen: 0-lin 1-nonlin 2-no                           
   RPACOR =    1.500    partial core radius                                     
   POMASS =   28.085; ZVAL   =    4.000    mass and valenz                      
   RCORE  =    1.900    outmost cutoff radius                                   
   RWIGS  =    2.480; RWIGS  =    1.312    wigner-seitz radius (au A)           
   ENMAX  =  245.345; ENMIN  =  184.009 eV                                      
   ICORE  =        2    local potential                                         
   LCOR   =        T    correct aug charges                                     
   LPAW   =        T    paw PP                                                  
   EAUG   =  322.069                                                            
   DEXC   =    0.000                                                            
   RMAX   =    1.950    core radius for proj-oper                               
   RAUG   =    1.300    factor for augmentation sphere                          
   RDEP   =    1.993    radius for radial grids                                 
   RDEPT  =    1.837    core radius for aug-charge                              
                                                                                
   Atomic configuration                                                         
    6 entries                                                                   
     n  l   j            E        occ.                                          
     1  0  0.50     -1785.8828   2.0000                                         
     2  0  0.50      -139.4969   2.0000                                         
     2  1  1.50       -95.5546   6.0000                                         
     3  0  0.50       -10.8127   2.0000                                         
     3  1  0.50        -4.0811   2.0000                                         
     3  2  1.50        -4.0817   0.0000                                         
   Description                                                                  
     l       E           TYP  RCUT    TYP  RCUT                                 
     0    -10.8127223     23  1.900                                             
     0     -7.6451159     23  1.900                                             
     1     -4.0811372     23  1.900                                             
     1      2.4879257     23  1.900                                             
     2     -4.0817478      7  1.900                                             
  local pseudopotential read in
  partial core-charges read in
  partial kinetic energy density read in
  atomic valenz-charges read in
  non local Contribution for L=           0  read in
    real space projection operators read in
  non local Contribution for L=           0  read in
    real space projection operators read in
  non local Contribution for L=           1  read in
    real space projection operators read in
  non local Contribution for L=           1  read in
    real space projection operators read in
    PAW grid and wavefunctions read in
 
   number of l-projection  operators is LMAX  =           4
   number of lm-projection operators is LMMAX =           8
 
  PAW_PBE Si 05Jan2001                  :
 energy of atom  1       EATOM= -103.0669
 kinetic energy error for atom=    0.0005 (will be added to EATOM!!)
 
 
 POSCAR: Si8                                     
  positions in direct lattice
  No initial velocities read in
 exchange correlation table for  LEXCH =        8
   RHO(1)=    0.500       N(1)  =     2000
   RHO(2)=  100.500       N(2)  =     4000
 


--------------------------------------------------------------------------------------------------------


 ion  position               nearest neighbor table
   1  0.327  0.327  0.828-   2 2.34   6 2.49   8 2.49   5 2.49   7 2.49   3 2.50   3 2.50   4 2.51
                             4 2.51   6 2.55   8 2.55
   2  0.673  0.673  0.172-   1 2.34   8 2.49   6 2.49   5 2.49   7 2.49   4 2.50   4 2.50   3 2.51
                             3 2.51   6 2.55   8 2.55
   3  0.173  0.173  0.328-   4 2.34   7 2.49   5 2.49   6 2.49   8 2.49   1 2.50   1 2.50   2 2.51
                             2 2.51   7 2.55   5 2.55
   4  0.827  0.827  0.672-   3 2.34   5 2.49   7 2.49   6 2.49   8 2.49   2 2.50   2 2.50   1 2.51
                             1 2.51   7 2.55   5 2.55
   5  0.718  0.282  0.500-   8 2.44   8 2.44   7 2.45   7 2.45   4 2.49   3 2.49   1 2.49   2 2.49
                             3 2.55   4 2.55
   6  0.218  0.782  0.000-   7 2.44   7 2.44   8 2.45   8 2.45   1 2.49   2 2.49   3 2.49   4 2.49
                             1 2.55   2 2.55
   7  0.282  0.718  0.500-   6 2.44   6 2.44   5 2.45   5 2.45   3 2.49   4 2.49   1 2.49   2 2.49
                             3 2.55   4 2.55
   8  0.782  0.218  0.000-   5 2.44   5 2.44   6 2.45   6 2.45   2 2.49   1 2.49   3 2.49   4 2.49
                             1 2.55   2 2.55
 
  LATTYP: Found a base centered orthorhombic cell.
 ALAT       =     4.7961000000
 B/A-ratio  =     1.6730677008
 C/A-ratio  =     0.9958090949
  
  Lattice vectors:
  
 A1 = (   2.3980500000,  -4.0121000000,   0.0000000000)
 A2 = (   2.3980500000,   4.0121000000,   0.0000000000)
 A3 = (   0.0000000000,   0.0000000000,   4.7760000000)


Analysis of symmetry for initial positions (statically):
=====================================================================
 Subroutine PRICEL returns:
 Original cell was already a primitive cell.
 

 Routine SETGRP: Setting up the symmetry group for a 
 base centered orthorhombic supercell.


 Subroutine GETGRP returns: Found  8 space group operations
 (whereof  4 operations were pure point group operations)
 out of a pool of  8 trial point group operations.


The static configuration has the point symmetry C_2h.
 The point group associated with its full space group is D_2h.


Analysis of symmetry for dynamics (positions and initial velocities):
=====================================================================
 Subroutine PRICEL returns:
 Original cell was already a primitive cell.
 

 Routine SETGRP: Setting up the symmetry group for a 
 base centered orthorhombic supercell.


 Subroutine GETGRP returns: Found  8 space group operations
 (whereof  4 operations were pure point group operations)
 out of a pool of  8 trial point group operations.


The dynamic configuration has the point symmetry C_2h.
 The point group associated with its full space group is D_2h.


Analysis of magnetic symmetry:
=====================================================================
 Subroutine PRICEL returns:
 Original cell was already a primitive cell.
 

 Subroutine MAGSYM returns: Found  8 space group operations
 (whereof  4 operations were pure point group operations)
 out of a pool of  8 trial space group operations
 (whereof  4 operations were pure point group operations)
 and found also     1 'primitive' translations


The magnetic configuration has the point symmetry C_2h.
 The point group associated with its full space group is D_2h.
 
 
 KPOINTS: K-Mesh                                  

Automatic generation of k-mesh.
Space group operators:
 irot       det(A)        alpha          n_x          n_y          n_z        tau_x        tau_y        tau_z
    1     1.000000     0.000000     1.000000     0.000000     0.000000     0.000000     0.000000     0.000000
    2    -1.000000     0.000000     1.000000     0.000000     0.000000     0.000000     0.000000     0.000000
    3     1.000000   180.000000     0.000000     1.000000     0.000000     0.000000     0.000000     0.000000
    4    -1.000000   180.000000     0.000000     1.000000     0.000000     0.000000     0.000000     0.000000
    5     1.000000   180.000000     0.000000     0.000000     1.000000     0.500000     0.500000     0.500000
    6    -1.000000   180.000000     0.000000     0.000000     1.000000     0.500000     0.500000     0.500000
    7     1.000000   180.000000     1.000000     0.000000     0.000000     0.500000     0.500000     0.500000
    8    -1.000000   180.000000     1.000000     0.000000     0.000000     0.500000     0.500000     0.500000
 
 Subroutine IBZKPT returns following result:
 ===========================================
 
 Found     14 irreducible k-points:
 
 Following reciprocal coordinates:
            Coordinates               Weight
  0.000000  0.000000  0.000000      1.000000
  0.250000  0.000000  0.000000      4.000000
  0.500000  0.000000  0.000000      2.000000
  0.250000  0.250000  0.000000      2.000000
  0.500000  0.250000  0.000000      4.000000
 -0.250000  0.250000  0.000000      2.000000
  0.500000  0.500000  0.000000      1.000000
  0.000000  0.000000  0.333333      2.000000
  0.250000  0.000000  0.333333      8.000000
  0.500000  0.000000  0.333333      4.000000
  0.250000  0.250000  0.333333      4.000000
  0.500000  0.250000  0.333333      8.000000
 -0.250000  0.250000  0.333333      4.000000
  0.500000  0.500000  0.333333      2.000000
 
 Following cartesian coordinates:
            Coordinates               Weight
  0.000000  0.000000  0.000000      1.000000
  0.052126 -0.031156  0.000000      4.000000
  0.104251 -0.062312  0.000000      2.000000
  0.104251  0.000000  0.000000      2.000000
  0.156377 -0.031156  0.000000      4.000000
  0.000000  0.062312  0.000000      2.000000
  0.208503  0.000000  0.000000      1.000000
  0.000000  0.000000  0.069793      2.000000
  0.052126 -0.031156  0.069793      8.000000
  0.104251 -0.062312  0.069793      4.000000
  0.104251  0.000000  0.069793      4.000000
  0.156377 -0.031156  0.069793      8.000000
  0.000000  0.062312  0.069793      4.000000
  0.208503  0.000000  0.069793      2.000000
 


--------------------------------------------------------------------------------------------------------




 Dimension of arrays:
   k-points           NKPTS =     14   k-points in BZ     NKDIM =     14   number of bands    NBANDS=     32
   number of dos      NEDOS =    301   number of ions     NIONS =      8
   non local maximal  LDIM  =      4   non local SUM 2l+1 LMDIM =      8
   total plane-waves  NPLWV =  46656
   max r-space proj   IRMAX =      1   max aug-charges    IRDMAX= 135975
   dimension x,y,z NGX =    36 NGY =   36 NGZ =   36
   dimension x,y,z NGXF=    72 NGYF=   72 NGZF=   72
   support grid    NGXF=   144 NGYF=  144 NGZF=  144
   ions per type =               8
 NGX,Y,Z   is equivalent  to a cutoff of  12.80, 12.80, 12.53 a.u.
 NGXF,Y,Z  is equivalent  to a cutoff of  25.61, 25.61, 25.06 a.u.


 I would recommend the setting:
   dimension x,y,z NGX =    35 NGY =   35 NGZ =   36
 SYSTEM =  matgen                                  
 POSCAR =  Si8                                     

 Startparameter for this run:
   NWRITE =      2    write-flag & timer
   PREC   = accura    normal or accurate (medium, high low for compatibility)
   ISTART =      0    job   : 0-new  1-cont  2-samecut
   ICHARG =      2    charge: 1-file 2-atom 10-const
   ISPIN  =      2    spin polarized calculation?
   LNONCOLLINEAR =      F non collinear calculations
   LSORBIT =      F    spin-orbit coupling
   INIWAV =      1    electr: 0-lowe 1-rand  2-diag
   LASPH  =      F    aspherical Exc in radial PAW
   METAGGA=      F    non-selfconsistent MetaGGA calc.

 Electronic Relaxation 1
   ENCUT  =  520.0 eV  38.22 Ry    6.18 a.u.   8.69  8.69  8.88*2*pi/ulx,y,z
   ENINI  =  520.0     initial cutoff
   ENAUG  =  322.1 eV  augmentation charge cutoff
   NELM   =    140;   NELMIN=  5; NELMDL= -5     # of ELM steps 
   EDIFF  = 0.1E-03   stopping-criterion for ELM
   LREAL  =      F    real-space projection
   NLSPLINE    = F    spline interpolate recip. space projectors
   LCOMPAT=      F    compatible to vasp.4.4
   GGA_COMPAT  = T    GGA compatible to vasp.4.4-vasp.4.6
   LMAXPAW     = -100 max onsite density
   LMAXMIX     =    2 max onsite mixed and CHGCAR
   VOSKOWN=      0    Vosko Wilk Nusair interpolation
   ROPT   =    0.00000
 Ionic relaxation
   EDIFFG = -.1E-01   stopping-criterion for IOM
   NSW    =      0    number of steps for IOM
   NBLOCK =      1;   KBLOCK =      1    inner block; outer block 
   IBRION =     -1    ionic relax: 0-MD 1-quasi-New 2-CG
   NFREE  =      0    steps in history (QN), initial steepest desc. (CG)
   ISIF   =      0    stress and relaxation
   IWAVPR =     10    prediction:  0-non 1-charg 2-wave 3-comb
   ISYM   =      2    0-nonsym 1-usesym 2-fastsym
   LCORR  =      T    Harris-Foulkes like correction to forces

   POTIM  = 0.0500    time-step for ionic-motion
   TEIN   =    0.0    initial temperature
   TEBEG  =    0.0;   TEEND  =   0.0 temperature during run
   SMASS  =  -3.00    Nose mass-parameter (am)
   estimated Nose-frequenzy (Omega)   =  0.10E-29 period in steps =****** mass=  -0.499E-27a.u.
   SCALEE = 1.0000    scale energy and forces
   NPACO  =    256;   APACO  = 16.0  distance and # of slots for P.C.
   PSTRESS=    0.0 pullay stress

  Mass of Ions in am
   POMASS =  28.09
  Ionic Valenz
   ZVAL   =   4.00
  Atomic Wigner-Seitz radii
   RWIGS  =  -1.00
  virtual crystal weights 
   VCA    =   1.00
   NELECT =      32.0000    total number of electrons
   NUPDOWN=      -1.0000    fix difference up-down

 DOS related values:
   EMIN   =  10.00;   EMAX   =-10.00  energy-range for DOS
   EFERMI =   0.00
   ISMEAR =     0;   SIGMA  =   0.05  broadening in eV -4-tet -1-fermi 0-gaus

 Electronic relaxation 2 (details)
   IALGO  =     38    algorithm
   LDIAG  =      T    sub-space diagonalisation (order eigenvalues)
   LSUBROT=      F    optimize rotation matrix (better conditioning)
   TURBO    =      0    0=normal 1=particle mesh
   IRESTART =      0    0=no restart 2=restart with 2 vectors
   NREBOOT  =      0    no. of reboots
   NMIN     =      0    reboot dimension
   EREF     =   0.00    reference energy to select bands
   IMIX   =      4    mixing-type and parameters
     AMIX     =   0.10;   BMIX     =  1.20
     AMIX_MAG =   0.40;   BMIX_MAG =  1.20
     AMIN     =   0.10
     WC   =   100.;   INIMIX=   1;  MIXPRE=   1;  MAXMIX= -45

 Intra band minimization:
   WEIMIN = 0.0000     energy-eigenvalue tresh-hold
   EBREAK =  0.78E-06  absolut break condition
   DEPER  =   0.30     relativ break condition  

   TIME   =   0.40     timestep for ELM

  volume/ion in A,a.u.               =      11.49        77.52
  Fermi-wavevector in a.u.,A,eV,Ry     =   1.151728  2.176451 18.047832  1.326478
  Thomas-Fermi vector in A             =   2.288384
 
 Write flags
   LWAVE  =      F    write WAVECAR
   LCHARG =      F    write CHGCAR
   LVTOT  =      F    write LOCPOT, total local potential
   LVHAR  =      F    write LOCPOT, Hartree potential only
   LELF   =      F    write electronic localiz. function (ELF)
   LORBIT =      0    0 simple, 1 ext, 2 COOP (PROOUT)


 Dipole corrections
   LMONO  =      F    monopole corrections only (constant potential shift)
   LDIPOL =      F    correct potential (dipole corrections)
   IDIPOL =      0    1-x, 2-y, 3-z, 4-all directions 
   EPSILON=  1.0000000 bulk dielectric constant

 Exchange correlation treatment:
   GGA     =    --    GGA type
   LEXCH   =     8    internal setting for exchange type
   VOSKOWN=      0    Vosko Wilk Nusair interpolation
   LHFCALC =     F    Hartree Fock is set to
   LHFONE  =     F    Hartree Fock one center treatment
   AEXX    =    0.0000 exact exchange contribution

 Linear response parameters
   LEPSILON=     F    determine dielectric tensor
   LRPA    =     F    only Hartree local field effects (RPA)
   LNABLA  =     F    use nabla operator in PAW spheres
   LVEL    =     F    velocity operator in full k-point grid
   LINTERFAST=   F  fast interpolation
   KINTER  =     0    interpolate to denser k-point grid
   CSHIFT  =0.1000    complex shift for real part using Kramers Kronig
   OMEGAMAX=  -1.0    maximum frequency
   DEG_THRESHOLD= 0.2000000E-02 threshold for treating states as degnerate
   RTIME   =    0.100 relaxation time in fs

 Orbital magnetization related:
   ORBITALMAG=     F  switch on orbital magnetization
   LCHIMAG   =     F  perturbation theory with respect to B field
   DQ        =  0.001000  dq finite difference perturbation B field



--------------------------------------------------------------------------------------------------------


 Static calculation
 charge density and potential will be updated during run
 spin polarized calculation
 Variant of blocked Davidson
 Davidson routine will perform the subspace rotation
 perform sub-space diagonalisation
    after iterative eigenvector-optimisation
 modified Broyden-mixing scheme, WC =      100.0
 initial mixing is a Kerker type mixing with AMIX =  0.1000 and BMIX =      1.2000
 Hartree-type preconditioning will be used
 using additional bands           16
 reciprocal scheme for non local part
 use partial core corrections
 calculate Harris-corrections to forces 
   (improved forces if not selfconsistent)
 use gradient corrections 
 use of overlap-Matrix (Vanderbilt PP)
 Gauss-broadening in eV      SIGMA  =   0.05


--------------------------------------------------------------------------------------------------------


  energy-cutoff  :      520.00
  volume of cell :       91.90
      direct lattice vectors                 reciprocal lattice vectors
     2.398050000 -4.012100000  0.000000000     0.208502742 -0.124623015  0.000000000
     2.398050000  4.012100000  0.000000000     0.208502742  0.124623015  0.000000000
     0.000000000  0.000000000  4.776000000     0.000000000  0.000000000  0.209380235

  length of vectors
     4.674140585  4.674140585  4.776000000     0.242907985  0.242907985  0.209380235


 
 k-points in units of 2pi/SCALE and weight: K-Mesh                                  
   0.00000000  0.00000000  0.00000000       0.021
   0.05212569 -0.03115575  0.00000000       0.083
   0.10425137 -0.06231151  0.00000000       0.042
   0.10425137  0.00000000  0.00000000       0.042
   0.15637706 -0.03115575  0.00000000       0.083
   0.00000000  0.06231151  0.00000000       0.042
   0.20850274  0.00000000  0.00000000       0.021
   0.00000000  0.00000000  0.06979341       0.042
   0.05212569 -0.03115575  0.06979341       0.167
   0.10425137 -0.06231151  0.06979341       0.083
   0.10425137  0.00000000  0.06979341       0.083
   0.15637706 -0.03115575  0.06979341       0.167
   0.00000000  0.06231151  0.06979341       0.083
   0.20850274  0.00000000  0.06979341       0.042
 
 k-points in reciprocal lattice and weights: K-Mesh                                  
   0.00000000  0.00000000  0.00000000       0.021
   0.25000000  0.00000000  0.00000000       0.083
   0.50000000  0.00000000  0.00000000       0.042
   0.25000000  0.25000000  0.00000000       0.042
   0.50000000  0.25000000  0.00000000       0.083
  -0.25000000  0.25000000  0.00000000       0.042
   0.50000000  0.50000000  0.00000000       0.021
   0.00000000  0.00000000  0.33333333       0.042
   0.25000000  0.00000000  0.33333333       0.167
   0.50000000  0.00000000  0.33333333       0.083
   0.25000000  0.25000000  0.33333333       0.083
   0.50000000  0.25000000  0.33333333       0.167
  -0.25000000  0.25000000  0.33333333       0.083
   0.50000000  0.50000000  0.33333333       0.042
 
 position of ions in fractional coordinates (direct lattice) 
   0.32700000  0.32700000  0.82800000
   0.67300000  0.67300000  0.17200000
   0.17300000  0.17300000  0.32800000
   0.82700000  0.82700000  0.67200000
   0.71800000  0.28200000  0.50000000
   0.21800000  0.78200000  0.00000000
   0.28200000  0.71800000  0.50000000
   0.78200000  0.21800000  0.00000000
 
 position of ions in cartesian coordinates  (Angst):
   1.56832470  0.00000000  3.95452800
   3.22777530  0.00000000  0.82147200
   0.82972530  0.00000000  1.56652800
   3.96637470  0.00000000  3.20947200
   2.39805000 -1.74927560  2.38800000
   2.39805000  2.26282440  0.00000000
   2.39805000  1.74927560  2.38800000
   2.39805000 -2.26282440  0.00000000
 


--------------------------------------------------------------------------------------------------------


 k-point  1 :   0.0000 0.0000 0.0000  plane waves:    2499
 k-point  2 :   0.2500 0.0000 0.0000  plane waves:    2476
 k-point  3 :   0.5000 0.0000 0.0000  plane waves:    2476
 k-point  4 :   0.2500 0.2500 0.0000  plane waves:    2467
 k-point  5 :   0.5000 0.2500 0.0000  plane waves:    2474
 k-point  6 :  -0.2500 0.2500 0.0000  plane waves:    2461
 k-point  7 :   0.5000 0.5000 0.0000  plane waves:    2438
 k-point  8 :   0.0000 0.0000 0.3333  plane waves:    2460
 k-point  9 :   0.2500 0.0000 0.3333  plane waves:    2473
 k-point 10 :   0.5000 0.0000 0.3333  plane waves:    2490
 k-point 11 :   0.2500 0.2500 0.3333  plane waves:    2480
 k-point 12 :   0.5000 0.2500 0.3333  plane waves:    2481
 k-point 13 :  -0.2500 0.2500 0.3333  plane waves:    2467
 k-point 14 :   0.5000 0.5000 0.3333  plane waves:    2482

 maximum and minimum number of plane-waves per node :       217      198

 maximum number of plane-waves:      2499
 maximum index in each direction: 
   IXMAX=    8   IYMAX=    8   IZMAX=    8
   IXMIN=   -9   IYMIN=   -9   IZMIN=   -9

 NGX is ok and might be reduce to  36
 NGY is ok and might be reduce to  36
 NGZ is ok and might be reduce to  36

 parallel 3D FFT for wavefunctions:
    minimum data exchange during FFTs selected (reduces bandwidth)
 parallel 3D FFT for charge:
    minimum data exchange during FFTs selected (reduces bandwidth)


 total amount of memory used by VASP on root node    32157. kBytes
========================================================================

   base      :      30000. kBytes
   nonl-proj :        212. kBytes
   fftplans  :        857. kBytes
   grid      :        695. kBytes
   one-center:          6. kBytes
   wavefun   :        387. kBytes
 
     INWAV:  cpu time    0.0000: real time    0.0004
 Broyden mixing: mesh for mixing (old mesh)
   NGX = 17   NGY = 17   NGZ = 17
  (NGX  = 72   NGY  = 72   NGZ  = 72)
  gives a total of   4913 points

 initial charge density was supplied:
 charge density of overlapping atoms calculated
 number of electron      32.0000000 magnetization       8.0000000
 keeping initial charge density in first step


--------------------------------------------------------------------------------------------------------


 Maximum index for augmentation-charges         2957 (set IRDMAX)


--------------------------------------------------------------------------------------------------------


 First call to EWALD:  gamma=   0.393
 Maximum number of real-space cells 3x 3x 3
 Maximum number of reciprocal cells 3x 3x 3

 FEWALD executed in parallel
    FEWALD:  cpu time    0.0500: real time    0.0533


----------------------------------------- Iteration    1(   1)  ---------------------------------------


    POTLOK:  cpu time    0.4089: real time    0.4451
    SETDIJ:  cpu time    0.1280: real time    0.1385
     EDDAV:  cpu time    2.3656: real time    2.6561
       DOS:  cpu time    0.0090: real time    0.0215
    --------------------------------------------
      LOOP:  cpu time    2.9236: real time    3.2994

 eigenvalue-minimisations  :  1792
 total energy-change (2. order) : 0.6098383E+02  (-0.1355444E+04)
 number of electron      32.0000000 magnetization       8.0000000
 augmentation part       32.0000000 magnetization       8.0000000

 Free energy of the ion-electron system (eV)
  ---------------------------------------------------
  alpha Z        PSCENC =        23.44283774
  Ewald energy   TEWEN  =     -1176.20760172
  -Hartree energ DENC   =        -2.78954516
  -exchange      EXHF   =         0.00000000
  -V(xc)+E(xc)   XCENC  =       -64.18144343
  PAW double counting   =       704.27336627     -563.47813718
  entropy T*S    EENTRO =        -0.00274413
  eigenvalues    EBANDS =       315.39628876
  atomic energy  EATOM  =       824.53081094
  Solvation  Ediel_sol  =         0.00000000
  ---------------------------------------------------
  free energy    TOTEN  =        60.98383209 eV

  energy without entropy =       60.98657622  energy(sigma->0) =       60.98520415


--------------------------------------------------------------------------------------------------------




----------------------------------------- Iteration    1(   2)  ---------------------------------------


     EDDAV:  cpu time    0.8319: real time    0.8748
       DOS:  cpu time    0.0020: real time    0.0024
    --------------------------------------------
      LOOP:  cpu time    0.8659: real time    0.9195

 eigenvalue-minimisations  :  2216
 total energy-change (2. order) :-0.9314969E+02  (-0.8699093E+02)
 number of electron      32.0000000 magnetization       8.0000000
 augmentation part       32.0000000 magnetization       8.0000000

 Free energy of the ion-electron system (eV)
  ---------------------------------------------------
  alpha Z        PSCENC =        23.44283774
  Ewald energy   TEWEN  =     -1176.20760172
  -Hartree energ DENC   =        -2.78954516
  -exchange      EXHF   =         0.00000000
  -V(xc)+E(xc)   XCENC  =       -64.18144343
  PAW double counting   =       704.27336627     -563.47813718
  entropy T*S    EENTRO =        -0.00272252
  eigenvalues    EBANDS =       222.24657408
  atomic energy  EATOM  =       824.53081094
  Solvation  Ediel_sol  =         0.00000000
  ---------------------------------------------------
  free energy    TOTEN  =       -32.16586098 eV

  energy without entropy =      -32.16313847  energy(sigma->0) =      -32.16449972


--------------------------------------------------------------------------------------------------------




----------------------------------------- Iteration    1(   3)  ---------------------------------------


     EDDAV:  cpu time    0.8649: real time    0.8664
       DOS:  cpu time    0.0030: real time    0.0027
    --------------------------------------------
      LOOP:  cpu time    0.8709: real time    0.8785

 eigenvalue-minimisations  :  2320
 total energy-change (2. order) :-0.3586216E+01  (-0.3500380E+01)
 number of electron      32.0000000 magnetization       8.0000000
 augmentation part       32.0000000 magnetization       8.0000000

 Free energy of the ion-electron system (eV)
  ---------------------------------------------------
  alpha Z        PSCENC =        23.44283774
  Ewald energy   TEWEN  =     -1176.20760172
  -Hartree energ DENC   =        -2.78954516
  -exchange      EXHF   =         0.00000000
  -V(xc)+E(xc)   XCENC  =       -64.18144343
  PAW double counting   =       704.27336627     -563.47813718
  entropy T*S    EENTRO =        -0.00158333
  eigenvalues    EBANDS =       218.65921884
  atomic energy  EATOM  =       824.53081094
  Solvation  Ediel_sol  =         0.00000000
  ---------------------------------------------------
  free energy    TOTEN  =       -35.75207703 eV

  energy without entropy =      -35.75049370  energy(sigma->0) =      -35.75128537


--------------------------------------------------------------------------------------------------------




----------------------------------------- Iteration    1(   4)  ---------------------------------------


     EDDAV:  cpu time    0.8039: real time    0.8278
       DOS:  cpu time    0.0040: real time    0.0043
    --------------------------------------------
      LOOP:  cpu time    0.8179: real time    0.8517

 eigenvalue-minimisations  :  2240
 total energy-change (2. order) :-0.2057405E-01  (-0.2054839E-01)
 number of electron      32.0000000 magnetization       8.0000000
 augmentation part       32.0000000 magnetization       8.0000000

 Free energy of the ion-electron system (eV)
  ---------------------------------------------------
  alpha Z        PSCENC =        23.44283774
  Ewald energy   TEWEN  =     -1176.20760172
  -Hartree energ DENC   =        -2.78954516
  -exchange      EXHF   =         0.00000000
  -V(xc)+E(xc)   XCENC  =       -64.18144343
  PAW double counting   =       704.27336627     -563.47813718
  entropy T*S    EENTRO =        -0.00160371
  eigenvalues    EBANDS =       218.63866518
  atomic energy  EATOM  =       824.53081094
  Solvation  Ediel_sol  =         0.00000000
  ---------------------------------------------------
  free energy    TOTEN  =       -35.77265108 eV

  energy without entropy =      -35.77104737  energy(sigma->0) =      -35.77184923


--------------------------------------------------------------------------------------------------------




----------------------------------------- Iteration    1(   5)  ---------------------------------------


     EDDAV:  cpu time    0.8309: real time    0.8312
       DOS:  cpu time    0.0030: real time    0.0027
    CHARGE:  cpu time    0.4469: real time    0.4630
    MIXING:  cpu time    0.1070: real time    0.1155
    --------------------------------------------
      LOOP:  cpu time    1.3898: real time    1.4192

 eigenvalue-minimisations  :  2264
 total energy-change (2. order) :-0.9839257E-04  (-0.9838623E-04)
 number of electron      32.0000000 magnetization       6.6171609
 augmentation part       -1.8621921 magnetization       4.9102221

 Broyden mixing:
  rms(total) = 0.13905E+01    rms(broyden)= 0.13905E+01
  rms(prec ) = 0.14679E+01
  weight for this iteration     100.00

 Free energy of the ion-electron system (eV)
  ---------------------------------------------------
  alpha Z        PSCENC =        23.44283774
  Ewald energy   TEWEN  =     -1176.20760172
  -Hartree energ DENC   =        -2.78954516
  -exchange      EXHF   =         0.00000000
  -V(xc)+E(xc)   XCENC  =       -64.18144343
  PAW double counting   =       704.27336627     -563.47813718
  entropy T*S    EENTRO =        -0.00160386
  eigenvalues    EBANDS =       218.63856693
  atomic energy  EATOM  =       824.53081094
  Solvation  Ediel_sol  =         0.00000000
  ---------------------------------------------------
  free energy    TOTEN  =       -35.77274948 eV

  energy without entropy =      -35.77114561  energy(sigma->0) =      -35.77194754


--------------------------------------------------------------------------------------------------------




----------------------------------------- Iteration    1(   6)  ---------------------------------------


    POTLOK:  cpu time    0.1550: real time    0.1606
    SETDIJ:  cpu time    0.0560: real time    0.0587
     EDDAV:  cpu time    0.8009: real time    0.8184
       DOS:  cpu time    0.0020: real time    0.0025
    CHARGE:  cpu time    0.0850: real time    0.0865
    MIXING:  cpu time    0.0080: real time    0.0329
    --------------------------------------------
      LOOP:  cpu time    1.1558: real time    1.2194

 eigenvalue-minimisations  :  2256
 total energy-change (2. order) :-0.5382308E+00  (-0.9957873E-03)
 number of electron      32.0000000 magnetization      -0.1505274
 augmentation part       -1.8639848 magnetization      -1.7095626

 Broyden mixing:
  rms(total) = 0.12078E+01    rms(broyden)= 0.12078E+01
  rms(prec ) = 0.12776E+01
  weight for this iteration     100.00

 eigenvalues of (default mixing * dielectric matrix)
  average eigenvalue GAMMA=   4.4529
  4.4529

 Free energy of the ion-electron system (eV)
  ---------------------------------------------------
  alpha Z        PSCENC =        23.44283774
  Ewald energy   TEWEN  =     -1176.20760172
  -Hartree energ DENC   =        -2.81413555
  -exchange      EXHF   =         0.00000000
  -V(xc)+E(xc)   XCENC  =       -64.39689519
  PAW double counting   =       939.17994978     -798.47974394
  entropy T*S    EENTRO =        -0.00472206
  eigenvalues    EBANDS =       218.43851973
  atomic energy  EATOM  =       824.53081094
  Solvation  Ediel_sol  =         0.00000000
  ---------------------------------------------------
  free energy    TOTEN  =       -36.31098027 eV

  energy without entropy =      -36.30625822  energy(sigma->0) =      -36.30861924


--------------------------------------------------------------------------------------------------------




----------------------------------------- Iteration    1(   7)  ---------------------------------------


    POTLOK:  cpu time    0.0810: real time    0.0885
    SETDIJ:  cpu time    0.0540: real time    0.0557
     EDDAV:  cpu time    4.1224: real time    4.1730
       DOS:  cpu time    0.0060: real time    0.0105
    CHARGE:  cpu time    0.0940: real time    0.1016
    MIXING:  cpu time    0.0090: real time    0.0190
    --------------------------------------------
      LOOP:  cpu time    4.3833: real time    4.4776

 eigenvalue-minimisations  :  2144
 total energy-change (2. order) :-0.1106575E+01  (-0.1931251E-01)
 number of electron      32.0000000 magnetization      -1.4898647
 augmentation part       -1.8722003 magnetization      -1.5246559

 Broyden mixing:
  rms(total) = 0.43117E+00    rms(broyden)= 0.43117E+00
  rms(prec ) = 0.46342E+00
  weight for this iteration     100.00

 eigenvalues of (default mixing * dielectric matrix)
  average eigenvalue GAMMA=   5.1851
  2.1350  8.2351

 Free energy of the ion-electron system (eV)
  ---------------------------------------------------
  alpha Z        PSCENC =        23.44283774
  Ewald energy   TEWEN  =     -1176.20760172
  -Hartree energ DENC   =        -3.14300326
  -exchange      EXHF   =         0.00000000
  -V(xc)+E(xc)   XCENC  =       -64.39362099
  PAW double counting   =      3009.87979332    -2869.56251561
  entropy T*S    EENTRO =        -0.00911263
  eigenvalues    EBANDS =       218.04485691
  atomic energy  EATOM  =       824.53081094
  Solvation  Ediel_sol  =         0.00000000
  ---------------------------------------------------
  free energy    TOTEN  =       -37.41755530 eV

  energy without entropy =      -37.40844267  energy(sigma->0) =      -37.41299898


--------------------------------------------------------------------------------------------------------




----------------------------------------- Iteration    1(   8)  ---------------------------------------


    POTLOK:  cpu time    0.0950: real time    0.0986
    SETDIJ:  cpu time    0.0790: real time    0.0798
     EDDAV:  cpu time    0.7739: real time    0.7894
       DOS:  cpu time    0.0020: real time    0.0030
    CHARGE:  cpu time    0.0870: real time    0.0868
    MIXING:  cpu time    0.0040: real time    0.0087
    --------------------------------------------
      LOOP:  cpu time    1.0458: real time    1.0793

 eigenvalue-minimisations  :  2176
 total energy-change (2. order) : 0.6898343E-01  (-0.4465199E-02)
 number of electron      32.0000000 magnetization      -1.2822316
 augmentation part       -1.8809113 magnetization      -0.7761561

 Broyden mixing:
  rms(total) = 0.16027E+00    rms(broyden)= 0.16027E+00
  rms(prec ) = 0.17927E+00
  weight for this iteration     100.00

 eigenvalues of (default mixing * dielectric matrix)
  average eigenvalue GAMMA=   3.6661
  8.1409  2.3081  0.5493

 Free energy of the ion-electron system (eV)
  ---------------------------------------------------
  alpha Z        PSCENC =        23.44283774
  Ewald energy   TEWEN  =     -1176.20760172
  -Hartree energ DENC   =        -3.28644415
  -exchange      EXHF   =         0.00000000
  -V(xc)+E(xc)   XCENC  =       -64.10194217
  PAW double counting   =      4104.56908497    -3964.42899111
  entropy T*S    EENTRO =        -0.00481194
  eigenvalues    EBANDS =       218.13848557
  atomic energy  EATOM  =       824.53081094
  Solvation  Ediel_sol  =         0.00000000
  ---------------------------------------------------
  free energy    TOTEN  =       -37.34857187 eV

  energy without entropy =      -37.34375993  energy(sigma->0) =      -37.34616590


--------------------------------------------------------------------------------------------------------




----------------------------------------- Iteration    1(   9)  ---------------------------------------


    POTLOK:  cpu time    0.0850: real time    0.0952
    SETDIJ:  cpu time    0.0560: real time    0.0579
     EDDAV:  cpu time    0.7739: real time    0.7904
       DOS:  cpu time    0.0020: real time    0.0029
    CHARGE:  cpu time    0.0860: real time    0.0875
    MIXING:  cpu time    0.0040: real time    0.0041
    --------------------------------------------
      LOOP:  cpu time    1.0148: real time    1.0552

 eigenvalue-minimisations  :  2184
 total energy-change (2. order) :-0.1512950E-01  (-0.1011405E-02)
 number of electron      32.0000000 magnetization      -0.5198607
 augmentation part       -1.8821736 magnetization      -0.0218245

 Broyden mixing:
  rms(total) = 0.11101E+00    rms(broyden)= 0.11101E+00
  rms(prec ) = 0.12016E+00
  weight for this iteration     100.00

 eigenvalues of (default mixing * dielectric matrix)
  average eigenvalue GAMMA=   3.8406
  8.2467  1.0789  3.0184  3.0184

 Free energy of the ion-electron system (eV)
  ---------------------------------------------------
  alpha Z        PSCENC =        23.44283774
  Ewald energy   TEWEN  =     -1176.20760172
  -Hartree energ DENC   =        -3.30285982
  -exchange      EXHF   =         0.00000000
  -V(xc)+E(xc)   XCENC  =       -64.06248484
  PAW double counting   =      4315.38201465    -4175.28275976
  entropy T*S    EENTRO =        -0.00505190
  eigenvalues    EBANDS =       218.14139336
  atomic energy  EATOM  =       824.53081094
  Solvation  Ediel_sol  =         0.00000000
  ---------------------------------------------------
  free energy    TOTEN  =       -37.36370137 eV

  energy without entropy =      -37.35864946  energy(sigma->0) =      -37.36117541


--------------------------------------------------------------------------------------------------------




----------------------------------------- Iteration    1(  10)  ---------------------------------------


    POTLOK:  cpu time    0.0720: real time    0.0819
    SETDIJ:  cpu time    0.0540: real time    0.0554
     EDDAV:  cpu time    0.7939: real time    0.8101
       DOS:  cpu time    0.0010: real time    0.0023
    CHARGE:  cpu time    0.0850: real time    0.0874
    MIXING:  cpu time    0.0040: real time    0.0038
    --------------------------------------------
      LOOP:  cpu time    1.0218: real time    1.0599

 eigenvalue-minimisations  :  2280
 total energy-change (2. order) :-0.2665623E-01  (-0.8428497E-03)
 number of electron      32.0000000 magnetization      -0.3987469
 augmentation part       -1.8819415 magnetization      -0.0932794

 Broyden mixing:
  rms(total) = 0.39119E-01    rms(broyden)= 0.39119E-01
  rms(prec ) = 0.44605E-01
  weight for this iteration     100.00

 eigenvalues of (default mixing * dielectric matrix)
  average eigenvalue GAMMA=   3.6592
  8.8063  4.7451  2.5029  0.9449  1.2967

 Free energy of the ion-electron system (eV)
  ---------------------------------------------------
  alpha Z        PSCENC =        23.44283774
  Ewald energy   TEWEN  =     -1176.20760172
  -Hartree energ DENC   =        -3.31948735
  -exchange      EXHF   =         0.00000000
  -V(xc)+E(xc)   XCENC  =       -64.03738019
  PAW double counting   =      4450.63362734    -4310.57951426
  entropy T*S    EENTRO =        -0.00822281
  eigenvalues    EBANDS =       218.15457271
  atomic energy  EATOM  =       824.53081094
  Solvation  Ediel_sol  =         0.00000000
  ---------------------------------------------------
  free energy    TOTEN  =       -37.39035759 eV

  energy without entropy =      -37.38213478  energy(sigma->0) =      -37.38624619


--------------------------------------------------------------------------------------------------------




----------------------------------------- Iteration    1(  11)  ---------------------------------------


    POTLOK:  cpu time    0.0780: real time    0.0829
    SETDIJ:  cpu time    0.1140: real time    0.1166
     EDDAV:  cpu time    0.8009: real time    0.8278
       DOS:  cpu time    0.0020: real time    0.0028
    CHARGE:  cpu time    0.0880: real time    0.0900
    MIXING:  cpu time    0.0030: real time    0.0035
    --------------------------------------------
      LOOP:  cpu time    1.0958: real time    1.1432

 eigenvalue-minimisations  :  2160
 total energy-change (2. order) :-0.1622417E-02  (-0.8388716E-04)
 number of electron      32.0000000 magnetization      -0.1815800
 augmentation part       -1.8822252 magnetization       0.0666836

 Broyden mixing:
  rms(total) = 0.26543E-01    rms(broyden)= 0.26543E-01
  rms(prec ) = 0.31197E-01
  weight for this iteration     100.00

 eigenvalues of (default mixing * dielectric matrix)
  average eigenvalue GAMMA=   3.6506
  8.8280  5.8897  2.9444  2.3384  0.9517  0.9517

 Free energy of the ion-electron system (eV)
  ---------------------------------------------------
  alpha Z        PSCENC =        23.44283774
  Ewald energy   TEWEN  =     -1176.20760172
  -Hartree energ DENC   =        -3.33810996
  -exchange      EXHF   =         0.00000000
  -V(xc)+E(xc)   XCENC  =       -64.01427472
  PAW double counting   =      4536.70567817    -4396.67202621
  entropy T*S    EENTRO =        -0.00856847
  eigenvalues    EBANDS =       218.16927421
  atomic energy  EATOM  =       824.53081094
  Solvation  Ediel_sol  =         0.00000000
  ---------------------------------------------------
  free energy    TOTEN  =       -37.39198001 eV

  energy without entropy =      -37.38341154  energy(sigma->0) =      -37.38769578


--------------------------------------------------------------------------------------------------------




----------------------------------------- Iteration    1(  12)  ---------------------------------------


    POTLOK:  cpu time    0.0750: real time    0.0827
    SETDIJ:  cpu time    0.0580: real time    0.0599
     EDDAV:  cpu time    0.7749: real time    0.7886
       DOS:  cpu time    0.0010: real time    0.0024
    CHARGE:  cpu time    0.0850: real time    0.0875
    MIXING:  cpu time    0.0040: real time    0.0038
    --------------------------------------------
      LOOP:  cpu time    1.0078: real time    1.0428

 eigenvalue-minimisations  :  2168
 total energy-change (2. order) :-0.2586269E-02  (-0.1755620E-03)
 number of electron      32.0000000 magnetization      -0.0454425
 augmentation part       -1.8818664 magnetization       0.0755543

 Broyden mixing:
  rms(total) = 0.13585E-01    rms(broyden)= 0.13585E-01
  rms(prec ) = 0.15696E-01
  weight for this iteration     100.00

 eigenvalues of (default mixing * dielectric matrix)
  average eigenvalue GAMMA=   3.5224
  8.8361  6.9614  3.4149  2.4879  0.9520  1.0022  1.0022

 Free energy of the ion-electron system (eV)
  ---------------------------------------------------
  alpha Z        PSCENC =        23.44283774
  Ewald energy   TEWEN  =     -1176.20760172
  -Hartree energ DENC   =        -3.35365925
  -exchange      EXHF   =         0.00000000
  -V(xc)+E(xc)   XCENC  =       -64.00475663
  PAW double counting   =      4547.08804984    -4407.06938420
  entropy T*S    EENTRO =        -0.00872238
  eigenvalues    EBANDS =       218.18785938
  atomic energy  EATOM  =       824.53081094
  Solvation  Ediel_sol  =         0.00000000
  ---------------------------------------------------
  free energy    TOTEN  =       -37.39456628 eV

  energy without entropy =      -37.38584390  energy(sigma->0) =      -37.39020509


--------------------------------------------------------------------------------------------------------




----------------------------------------- Iteration    1(  13)  ---------------------------------------


    POTLOK:  cpu time    0.0790: real time    0.0881
    SETDIJ:  cpu time    0.0580: real time    0.0602
     EDDAV:  cpu time    0.7829: real time    0.8010
       DOS:  cpu time    0.0030: real time    0.0028
    CHARGE:  cpu time    0.0840: real time    0.0864
    MIXING:  cpu time    0.0030: real time    0.0038
    --------------------------------------------
      LOOP:  cpu time    1.0188: real time    1.0596

 eigenvalue-minimisations  :  2208
 total energy-change (2. order) :-0.5695538E-03  (-0.4833844E-04)
 number of electron      32.0000000 magnetization       0.0143479
 augmentation part       -1.8817910 magnetization       0.0537044

 Broyden mixing:
  rms(total) = 0.80400E-02    rms(broyden)= 0.80400E-02
  rms(prec ) = 0.94772E-02
  weight for this iteration     100.00

 eigenvalues of (default mixing * dielectric matrix)
  average eigenvalue GAMMA=   3.7003
  8.9417  8.9417  3.8184  2.4427  2.4427  1.1037  0.9123  0.9994

 Free energy of the ion-electron system (eV)
  ---------------------------------------------------
  alpha Z        PSCENC =        23.44283774
  Ewald energy   TEWEN  =     -1176.20760172
  -Hartree energ DENC   =        -3.36022682
  -exchange      EXHF   =         0.00000000
  -V(xc)+E(xc)   XCENC  =       -63.99858650
  PAW double counting   =      4552.64846361    -4412.63848067
  entropy T*S    EENTRO =        -0.00867539
  eigenvalues    EBANDS =       218.19632297
  atomic energy  EATOM  =       824.53081094
  Solvation  Ediel_sol  =         0.00000000
  ---------------------------------------------------
  free energy    TOTEN  =       -37.39513583 eV

  energy without entropy =      -37.38646044  energy(sigma->0) =      -37.39079814


--------------------------------------------------------------------------------------------------------




----------------------------------------- Iteration    1(  14)  ---------------------------------------


    POTLOK:  cpu time    0.0730: real time    0.0801
    SETDIJ:  cpu time    0.0580: real time    0.0605
     EDDAV:  cpu time    0.6609: real time    0.6767
       DOS:  cpu time    0.0010: real time    0.0024
    CHARGE:  cpu time    0.0850: real time    0.0870
    MIXING:  cpu time    0.0030: real time    0.0037
    --------------------------------------------
      LOOP:  cpu time    0.8929: real time    0.9295

 eigenvalue-minimisations  :  1560
 total energy-change (2. order) :-0.1259441E-03  (-0.1917775E-04)
 number of electron      32.0000000 magnetization       0.0167973
 augmentation part       -1.8818084 magnetization       0.0133630

 Broyden mixing:
  rms(total) = 0.39990E-02    rms(broyden)= 0.39990E-02
  rms(prec ) = 0.50906E-02
  weight for this iteration     100.00

 eigenvalues of (default mixing * dielectric matrix)
  average eigenvalue GAMMA=   3.6061
  9.3049  9.3049  4.0886  3.1182  2.3010  1.3565  1.0832  0.9490  0.9490

 Free energy of the ion-electron system (eV)
  ---------------------------------------------------
  alpha Z        PSCENC =        23.44283774
  Ewald energy   TEWEN  =     -1176.20760172
  -Hartree energ DENC   =        -3.36029745
  -exchange      EXHF   =         0.00000000
  -V(xc)+E(xc)   XCENC  =       -63.99655201
  PAW double counting   =      4548.70605823    -4408.69930059
  entropy T*S    EENTRO =        -0.00868724
  eigenvalues    EBANDS =       218.19747032
  atomic energy  EATOM  =       824.53081094
  Solvation  Ediel_sol  =         0.00000000
  ---------------------------------------------------
  free energy    TOTEN  =       -37.39526178 eV

  energy without entropy =      -37.38657453  energy(sigma->0) =      -37.39091815


--------------------------------------------------------------------------------------------------------




----------------------------------------- Iteration    1(  15)  ---------------------------------------


    POTLOK:  cpu time    0.5839: real time    0.5848
    SETDIJ:  cpu time    0.1880: real time    0.2010
     EDDAV:  cpu time    1.4488: real time    1.4784
       DOS:  cpu time    0.0050: real time    0.0046
    --------------------------------------------
      LOOP:  cpu time    2.2307: real time    2.2797

 eigenvalue-minimisations  :  1256
 total energy-change (2. order) :-0.2419180E-04  (-0.1221293E-04)
 number of electron      32.0000000 magnetization       0.0167973
 augmentation part       -1.8818084 magnetization       0.0133630

 Free energy of the ion-electron system (eV)
  ---------------------------------------------------
  alpha Z        PSCENC =        23.44283774
  Ewald energy   TEWEN  =     -1176.20760172
  -Hartree energ DENC   =        -3.36017415
  -exchange      EXHF   =         0.00000000
  -V(xc)+E(xc)   XCENC  =       -63.99507312
  PAW double counting   =      4549.05266735    -4409.04724151
  entropy T*S    EENTRO =        -0.00871247
  eigenvalues    EBANDS =       218.19720098
  atomic energy  EATOM  =       824.53081094
  Solvation  Ediel_sol  =         0.00000000
  ---------------------------------------------------
  free energy    TOTEN  =       -37.39528597 eV

  energy without entropy =      -37.38657349  energy(sigma->0) =      -37.39092973


--------------------------------------------------------------------------------------------------------




 average (electrostatic) potential at core
  the test charge radii are     0.9892
  (the norm of the test charge is              1.0000)
       1 -76.5213       2 -76.5213       3 -76.5213       4 -76.5213       5 -76.4287
       6 -76.4287       7 -76.4287       8 -76.4287
 
 
 
 E-fermi :  13.3369     XC(G=0): -12.1343     alpha+bet :-20.8784


 spin component 1

 k-point     1 :       0.0000    0.0000    0.0000
  band No.  band energies     occupation 
      1      -3.2856      1.00000
      2       2.7525      1.00000
      3       3.1856      1.00000
      4       4.5836      1.00000
      5       5.1937      1.00000
      6       5.1945      1.00000
      7       5.3100      1.00000
      8       5.4033      1.00000
      9       5.8043      1.00000
     10      10.1664      1.00000
     11      10.3031      1.00000
     12      10.3161      1.00000
     13      10.4487      1.00000
     14      10.5510      1.00000
     15      10.8579      1.00000
     16      11.1209      1.00000
     17      11.7190      1.00000
     18      12.2127      1.00000
     19      12.4982      1.00000
     20      12.8163      1.00000
     21      12.9625      1.00000
     22      19.4554      0.00000
     23      20.1666      0.00000
     24      20.6674      0.00000
     25      21.1932      0.00000
     26      21.3882      0.00000
     27      21.9795      0.00000
     28      22.7168      0.00000
     29      23.7431      0.00000
     30      25.6216      0.00000
     31      25.7825      0.00000
     32      25.7925      0.00000

 k-point     2 :       0.2500    0.0000    0.0000
  band No.  band energies     occupation 
      1      -2.7516      1.00000
      2       1.4509      1.00000
      3       3.2695      1.00000
      4       3.6878      1.00000
      5       3.6963      1.00000
      6       3.8913      1.00000
      7       7.2957      1.00000
      8       7.4761      1.00000
      9       7.6403      1.00000
     10       8.2122      1.00000
     11       9.3005      1.00000
     12       9.4247      1.00000
     13       9.7504      1.00000
     14      10.1649      1.00000
     15      10.3099      1.00000
     16      13.0579      1.00000
     17      13.2964      0.87351
     18      14.2059      0.00000
     19      14.5711      0.00000
     20      15.2328      0.00000
     21      15.7637      0.00000
     22      16.0980      0.00000
     23      16.9895      0.00000
     24      20.8089      0.00000
     25      20.9407      0.00000
     26      21.1321      0.00000
     27      21.1998      0.00000
     28      21.8135      0.00000
     29      21.9633      0.00000
     30      22.4286      0.00000
     31      22.5579      0.00000
     32      23.3534      0.00000

 k-point     3 :       0.5000    0.0000    0.0000
  band No.  band energies     occupation 
      1      -1.1604      1.00000
      2      -1.1604      1.00000
      3       3.2693      1.00000
      4       3.2693      1.00000
      5       4.8040      1.00000
      6       4.8040      1.00000
      7       5.2211      1.00000
      8       5.2211      1.00000
      9       8.8637      1.00000
     10       8.8637      1.00000
     11       9.7025      1.00000
     12       9.7025      1.00000
     13      10.9340      1.00000
     14      10.9340      1.00000
     15      11.7828      1.00000
     16      11.7828      1.00000
     17      14.8474      0.00000
     18      14.8474      0.00000
     19      16.5576      0.00000
     20      16.5576      0.00000
     21      16.8094      0.00000
     22      16.8094      0.00000
     23      17.9129      0.00000
     24      17.9129      0.00000
     25      18.6514      0.00000
     26      18.6514      0.00000
     27      20.6165      0.00000
     28      20.6165      0.00000
     29      21.4960      0.00000
     30      21.4960      0.00000
     31      22.2197      0.00000
     32      22.2197      0.00000

 k-point     4 :       0.2500    0.2500    0.0000
  band No.  band energies     occupation 
      1      -1.7154      1.00000
      2       0.2957      1.00000
      3       0.7390      1.00000
      4       4.2767      1.00000
      5       4.6775      1.00000
      6       6.0992      1.00000
      7       6.7208      1.00000
      8       6.7475      1.00000
      9       6.8467      1.00000
     10       6.8668      1.00000
     11       7.3101      1.00000
     12      10.3189      1.00000
     13      12.1821      1.00000
     14      12.4390      1.00000
     15      12.6933      1.00000
     16      12.9877      1.00000
     17      13.0018      1.00000
     18      13.3971      0.04426
     19      16.5160      0.00000
     20      16.7881      0.00000
     21      17.1815      0.00000
     22      17.4087      0.00000
     23      17.5727      0.00000
     24      17.9151      0.00000
     25      19.1155      0.00000
     26      19.1897      0.00000
     27      19.1964      0.00000
     28      19.2592      0.00000
     29      22.4338      0.00000
     30      22.9077      0.00000
     31      22.9404      0.00000
     32      23.2120      0.00000

 k-point     5 :       0.5000    0.2500    0.0000
  band No.  band energies     occupation 
      1      -1.6427      1.00000
      2       0.3625      1.00000
      3       0.6257      1.00000
      4       4.3292      1.00000
      5       4.7706      1.00000
      6       6.2724      1.00000
      7       6.4028      1.00000
      8       6.5504      1.00000
      9       6.6662      1.00000
     10       6.9155      1.00000
     11       6.9203      1.00000
     12      11.0542      1.00000
     13      11.8173      1.00000
     14      12.6979      1.00000
     15      12.7591      1.00000
     16      12.9745      1.00000
     17      13.3048      0.81771
     18      13.3617      0.24109
     19      16.1880      0.00000
     20      16.8589      0.00000
     21      16.9389      0.00000
     22      17.2044      0.00000
     23      17.9986      0.00000
     24      18.4480      0.00000
     25      19.2019      0.00000
     26      19.4536      0.00000
     27      19.8203      0.00000
     28      20.1348      0.00000
     29      21.8483      0.00000
     30      22.4291      0.00000
     31      22.4696      0.00000
     32      22.6786      0.00000

 k-point     6 :      -0.2500    0.2500    0.0000
  band No.  band energies     occupation 
      1      -2.7256      1.00000
      2       1.7448      1.00000
      3       3.1769      1.00000
      4       3.3545      1.00000
      5       3.6835      1.00000
      6       3.7260      1.00000
      7       7.5536      1.00000
      8       7.6453      1.00000
      9       7.8856      1.00000
     10       7.9873      1.00000
     11       8.8514      1.00000
     12       8.9568      1.00000
     13       9.6286      1.00000
     14      10.3405      1.00000
     15      10.7499      1.00000
     16      12.9398      1.00000
     17      13.1045      1.00000
     18      14.2345      0.00000
     19      14.7865      0.00000
     20      15.7753      0.00000
     21      16.3798      0.00000
     22      16.4332      0.00000
     23      17.0736      0.00000
     24      19.9624      0.00000
     25      21.0406      0.00000
     26      21.1274      0.00000
     27      21.3583      0.00000
     28      21.6130      0.00000
     29      22.1567      0.00000
     30      22.4597      0.00000
     31      23.5477      0.00000
     32      23.7951      0.00000

 k-point     7 :       0.5000    0.5000    0.0000
  band No.  band energies     occupation 
      1      -1.2560      1.00000
      2      -0.8100      1.00000
      3       2.6904      1.00000
      4       3.1433      1.00000
      5       4.6299      1.00000
      6       5.2469      1.00000
      7       5.2781      1.00000
      8       5.4374      1.00000
      9       8.2866      1.00000
     10       8.3427      1.00000
     11       9.1629      1.00000
     12      10.0010      1.00000
     13      10.9020      1.00000
     14      11.4322      1.00000
     15      11.9143      1.00000
     16      11.9275      1.00000
     17      15.4332      0.00000
     18      15.9804      0.00000
     19      16.4667      0.00000
     20      16.5238      0.00000
     21      16.8394      0.00000
     22      16.9436      0.00000
     23      17.2107      0.00000
     24      18.2232      0.00000
     25      19.5853      0.00000
     26      19.7085      0.00000
     27      21.0763      0.00000
     28      21.1766      0.00000
     29      21.2569      0.00000
     30      21.5599      0.00000
     31      21.8883      0.00000
     32      22.1263      0.00000

 k-point     8 :       0.0000    0.0000    0.3333
  band No.  band energies     occupation 
      1      -2.5799      1.00000
      2      -0.4810      1.00000
      3       5.2334      1.00000
      4       5.8562      1.00000
      5       5.8591      1.00000
      6       5.9684      1.00000
      7       6.0320      1.00000
      8       6.4824      1.00000
      9       7.2613      1.00000
     10       7.5933      1.00000
     11       7.9239      1.00000
     12       7.9331      1.00000
     13       7.9353      1.00000
     14       8.0405      1.00000
     15       8.5560      1.00000
     16      13.2792      0.94868
     17      15.3939      0.00000
     18      15.8403      0.00000
     19      15.9012      0.00000
     20      15.9704      0.00000
     21      16.3602      0.00000
     22      16.4493      0.00000
     23      20.7469      0.00000
     24      20.8552      0.00000
     25      20.8619      0.00000
     26      20.9703      0.00000
     27      21.2774      0.00000
     28      21.3691      0.00000
     29      21.8485      0.00000
     30      22.4839      0.00000
     31      22.5960      0.00000
     32      23.1593      0.00000

 k-point     9 :       0.2500    0.0000    0.3333
  band No.  band energies     occupation 
      1      -2.0480      1.00000
      2       0.0439      1.00000
      3       2.1394      1.00000
      4       4.1710      1.00000
      5       4.3562      1.00000
      6       4.5717      1.00000
      7       6.3404      1.00000
      8       6.5661      1.00000
      9       8.1747      1.00000
     10       8.2081      1.00000
     11       8.8677      1.00000
     12       9.9599      1.00000
     13      10.2950      1.00000
     14      10.7666      1.00000
     15      11.8619      1.00000
     16      12.5652      1.00000
     17      13.9381      0.00000
     18      14.4832      0.00000
     19      14.8774      0.00000
     20      16.2075      0.00000
     21      16.9606      0.00000
     22      17.8084      0.00000
     23      18.1302      0.00000
     24      18.3613      0.00000
     25      18.7941      0.00000
     26      19.3170      0.00000
     27      19.9687      0.00000
     28      20.3388      0.00000
     29      20.7551      0.00000
     30      22.3035      0.00000
     31      22.6720      0.00000
     32      23.3017      0.00000

 k-point    10 :       0.5000    0.0000    0.3333
  band No.  band energies     occupation 
      1      -0.4637      1.00000
      2      -0.4637      1.00000
      3       1.6107      1.00000
      4       1.6107      1.00000
      5       3.9501      1.00000
      6       3.9501      1.00000
      7       5.9598      1.00000
      8       5.9598      1.00000
      9       9.5839      1.00000
     10       9.5839      1.00000
     11      11.3842      1.00000
     12      11.3842      1.00000
     13      12.2866      1.00000
     14      12.2866      1.00000
     15      13.3715      0.16392
     16      13.3715      0.16392
     17      14.1627      0.00000
     18      14.1627      0.00000
     19      14.5567      0.00000
     20      14.5567      0.00000
     21      15.5030      0.00000
     22      15.5030      0.00000
     23      16.3844      0.00000
     24      16.3844      0.00000
     25      18.1280      0.00000
     26      18.1280      0.00000
     27      19.8692      0.00000
     28      19.8692      0.00000
     29      21.6944      0.00000
     30      21.6944      0.00000
     31      22.2883      0.00000
     32      22.2883      0.00000

 k-point    11 :       0.2500    0.2500    0.3333
  band No.  band energies     occupation 
      1      -1.0163      1.00000
      2       0.9573      1.00000
      3       1.0947      1.00000
      4       1.4291      1.00000
      5       3.0409      1.00000
      6       3.4805      1.00000
      7       7.4385      1.00000
      8       7.9639      1.00000
      9       9.0262      1.00000
     10       9.3647      1.00000
     11       9.7819      1.00000
     12      10.9205      1.00000
     13      11.3247      1.00000
     14      11.3341      1.00000
     15      12.4737      1.00000
     16      13.1802      1.00000
     17      13.7632      0.00000
     18      14.6553      0.00000
     19      15.4828      0.00000
     20      15.7117      0.00000
     21      16.8762      0.00000
     22      16.9823      0.00000
     23      17.5289      0.00000
     24      17.6939      0.00000
     25      18.2011      0.00000
     26      18.6686      0.00000
     27      19.3315      0.00000
     28      19.7609      0.00000
     29      20.1519      0.00000
     30      20.2812      0.00000
     31      21.1293      0.00000
     32      21.7911      0.00000

 k-point    12 :       0.5000    0.2500    0.3333
  band No.  band energies     occupation 
      1      -0.9437      1.00000
      2       1.0339      1.00000
      3       1.1558      1.00000
      4       1.3156      1.00000
      5       3.1070      1.00000
      6       3.3694      1.00000
      7       7.0574      1.00000
      8       7.5549      1.00000
      9       8.9362      1.00000
     10       9.1926      1.00000
     11       9.5055      1.00000
     12      11.1904      1.00000
     13      11.4769      1.00000
     14      11.8216      1.00000
     15      13.0757      1.00000
     16      13.7666      0.00000
     17      14.4268      0.00000
     18      14.7820      0.00000
     19      15.2696      0.00000
     20      16.0534      0.00000
     21      16.4392      0.00000
     22      17.0376      0.00000
     23      17.3353      0.00000
     24      17.4190      0.00000
     25      17.8415      0.00000
     26      18.5623      0.00000
     27      18.9279      0.00000
     28      19.4482      0.00000
     29      19.8991      0.00000
     30      20.5606      0.00000
     31      21.2605      0.00000
     32      22.0721      0.00000

 k-point    13 :      -0.2500    0.2500    0.3333
  band No.  band energies     occupation 
      1      -2.0221      1.00000
      2       0.0700      1.00000
      3       2.4302      1.00000
      4       3.9089      1.00000
      5       4.3535      1.00000
      6       4.4740      1.00000
      7       5.9192      1.00000
      8       6.3154      1.00000
      9       8.1946      1.00000
     10       8.2991      1.00000
     11       8.6512      1.00000
     12      10.1809      1.00000
     13      10.4508      1.00000
     14      10.9777      1.00000
     15      12.5756      1.00000
     16      12.7841      1.00000
     17      13.3926      0.05748
     18      14.5097      0.00000
     19      14.8391      0.00000
     20      16.5837      0.00000
     21      16.9874      0.00000
     22      17.9643      0.00000
     23      18.3725      0.00000
     24      18.4695      0.00000
     25      19.2088      0.00000
     26      19.2319      0.00000
     27      20.2279      0.00000
     28      20.4030      0.00000
     29      20.6222      0.00000
     30      21.6646      0.00000
     31      22.2012      0.00000
     32      23.0461      0.00000

 k-point    14 :       0.5000    0.5000    0.3333
  band No.  band energies     occupation 
      1      -0.5587      1.00000
      2      -0.1138      1.00000
      3       1.5128      1.00000
      4       1.9585      1.00000
      5       3.3809      1.00000
      6       3.8159      1.00000
      7       5.4010      1.00000
      8       5.7997      1.00000
      9       9.5660      1.00000
     10       9.9657      1.00000
     11      11.5252      1.00000
     12      11.9786      1.00000
     13      12.0884      1.00000
     14      12.3777      1.00000
     15      12.7785      1.00000
     16      13.6342      0.00000
     17      14.0537      0.00000
     18      14.2918      0.00000
     19      14.5180      0.00000
     20      14.6972      0.00000
     21      15.8037      0.00000
     22      16.2581      0.00000
     23      16.5197      0.00000
     24      17.0089      0.00000
     25      18.2864      0.00000
     26      19.0683      0.00000
     27      19.5619      0.00000
     28      20.1183      0.00000
     29      21.4326      0.00000
     30      22.0076      0.00000
     31      22.2278      0.00000
     32      22.7795      0.00000

 spin component 2

 k-point     1 :       0.0000    0.0000    0.0000
  band No.  band energies     occupation 
      1      -3.2830      1.00000
      2       2.7545      1.00000
      3       3.1886      1.00000
      4       4.5865      1.00000
      5       5.1955      1.00000
      6       5.1968      1.00000
      7       5.3122      1.00000
      8       5.4062      1.00000
      9       5.8073      1.00000
     10      10.1687      1.00000
     11      10.3057      1.00000
     12      10.3175      1.00000
     13      10.4516      1.00000
     14      10.5542      1.00000
     15      10.8597      1.00000
     16      11.1240      1.00000
     17      11.7218      1.00000
     18      12.2152      1.00000
     19      12.5005      1.00000
     20      12.8187      1.00000
     21      12.9665      1.00000
     22      19.4573      0.00000
     23      20.1693      0.00000
     24      20.6701      0.00000
     25      21.1956      0.00000
     26      21.3904      0.00000
     27      21.9824      0.00000
     28      22.7198      0.00000
     29      23.7449      0.00000
     30      25.6250      0.00000
     31      25.7850      0.00000
     32      25.7953      0.00000

 k-point     2 :       0.2500    0.0000    0.0000
  band No.  band energies     occupation 
      1      -2.7490      1.00000
      2       1.4534      1.00000
      3       3.2716      1.00000
      4       3.6904      1.00000
      5       3.6993      1.00000
      6       3.8939      1.00000
      7       7.2977      1.00000
      8       7.4784      1.00000
      9       7.6432      1.00000
     10       8.2149      1.00000
     11       9.3029      1.00000
     12       9.4272      1.00000
     13       9.7530      1.00000
     14      10.1676      1.00000
     15      10.3127      1.00000
     16      13.0598      1.00000
     17      13.2992      0.85655
     18      14.2084      0.00000
     19      14.5739      0.00000
     20      15.2352      0.00000
     21      15.7666      0.00000
     22      16.1008      0.00000
     23      16.9924      0.00000
     24      20.8113      0.00000
     25      20.9432      0.00000
     26      21.1349      0.00000
     27      21.2027      0.00000
     28      21.8160      0.00000
     29      21.9656      0.00000
     30      22.4307      0.00000
     31      22.5607      0.00000
     32      23.3560      0.00000

 k-point     3 :       0.5000    0.0000    0.0000
  band No.  band energies     occupation 
      1      -1.1578      1.00000
      2      -1.1578      1.00000
      3       3.2719      1.00000
      4       3.2719      1.00000
      5       4.8061      1.00000
      6       4.8061      1.00000
      7       5.2240      1.00000
      8       5.2240      1.00000
      9       8.8661      1.00000
     10       8.8661      1.00000
     11       9.7050      1.00000
     12       9.7050      1.00000
     13      10.9367      1.00000
     14      10.9367      1.00000
     15      11.7852      1.00000
     16      11.7852      1.00000
     17      14.8498      0.00000
     18      14.8498      0.00000
     19      16.5604      0.00000
     20      16.5604      0.00000
     21      16.8122      0.00000
     22      16.8122      0.00000
     23      17.9157      0.00000
     24      17.9157      0.00000
     25      18.6539      0.00000
     26      18.6539      0.00000
     27      20.6190      0.00000
     28      20.6190      0.00000
     29      21.4993      0.00000
     30      21.4993      0.00000
     31      22.2220      0.00000
     32      22.2220      0.00000

 k-point     4 :       0.2500    0.2500    0.0000
  band No.  band energies     occupation 
      1      -1.7129      1.00000
      2       0.2981      1.00000
      3       0.7417      1.00000
      4       4.2787      1.00000
      5       4.6806      1.00000
      6       6.1011      1.00000
      7       6.7231      1.00000
      8       6.7506      1.00000
      9       6.8488      1.00000
     10       6.8697      1.00000
     11       7.3131      1.00000
     12      10.3210      1.00000
     13      12.1842      1.00000
     14      12.4407      1.00000
     15      12.6960      1.00000
     16      12.9905      1.00000
     17      13.0047      1.00000
     18      13.4004      0.03622
     19      16.5183      0.00000
     20      16.7916      0.00000
     21      17.1840      0.00000
     22      17.4106      0.00000
     23      17.5750      0.00000
     24      17.9171      0.00000
     25      19.1185      0.00000
     26      19.1925      0.00000
     27      19.2002      0.00000
     28      19.2619      0.00000
     29      22.4360      0.00000
     30      22.9097      0.00000
     31      22.9434      0.00000
     32      23.2653      0.00000

 k-point     5 :       0.5000    0.2500    0.0000
  band No.  band energies     occupation 
      1      -1.6402      1.00000
      2       0.3650      1.00000
      3       0.6283      1.00000
      4       4.3313      1.00000
      5       4.7737      1.00000
      6       6.2745      1.00000
      7       6.4054      1.00000
      8       6.5530      1.00000
      9       6.6689      1.00000
     10       6.9185      1.00000
     11       6.9226      1.00000
     12      11.0566      1.00000
     13      11.8199      1.00000
     14      12.7005      1.00000
     15      12.7617      1.00000
     16      12.9760      1.00000
     17      13.3086      0.78798
     18      13.3643      0.21845
     19      16.1904      0.00000
     20      16.8608      0.00000
     21      16.9416      0.00000
     22      17.2075      0.00000
     23      18.0010      0.00000
     24      18.4506      0.00000
     25      19.2042      0.00000
     26      19.4568      0.00000
     27      19.8230      0.00000
     28      20.1371      0.00000
     29      21.8504      0.00000
     30      22.4323      0.00000
     31      22.4719      0.00000
     32      22.6810      0.00000

 k-point     6 :      -0.2500    0.2500    0.0000
  band No.  band energies     occupation 
      1      -2.7230      1.00000
      2       1.7473      1.00000
      3       3.1793      1.00000
      4       3.3567      1.00000
      5       3.6859      1.00000
      6       3.7291      1.00000
      7       7.5562      1.00000
      8       7.6475      1.00000
      9       7.8878      1.00000
     10       7.9903      1.00000
     11       8.8530      1.00000
     12       8.9597      1.00000
     13       9.6314      1.00000
     14      10.3431      1.00000
     15      10.7533      1.00000
     16      12.9426      1.00000
     17      13.1060      1.00000
     18      14.2369      0.00000
     19      14.7899      0.00000
     20      15.7780      0.00000
     21      16.3826      0.00000
     22      16.4359      0.00000
     23      17.0760      0.00000
     24      19.9643      0.00000
     25      21.0431      0.00000
     26      21.1299      0.00000
     27      21.3602      0.00000
     28      21.6157      0.00000
     29      22.1594      0.00000
     30      22.4623      0.00000
     31      23.5513      0.00000
     32      23.7983      0.00000

 k-point     7 :       0.5000    0.5000    0.0000
  band No.  band energies     occupation 
      1      -1.2536      1.00000
      2      -0.8073      1.00000
      3       2.6931      1.00000
      4       3.1457      1.00000
      5       4.6318      1.00000
      6       5.2500      1.00000
      7       5.2804      1.00000
      8       5.4404      1.00000
      9       8.2893      1.00000
     10       8.3443      1.00000
     11       9.1656      1.00000
     12      10.0039      1.00000
     13      10.9043      1.00000
     14      11.4341      1.00000
     15      11.9178      1.00000
     16      11.9305      1.00000
     17      15.4358      0.00000
     18      15.9833      0.00000
     19      16.4686      0.00000
     20      16.5269      0.00000
     21      16.8405      0.00000
     22      16.9465      0.00000
     23      17.2127      0.00000
     24      18.2263      0.00000
     25      19.5880      0.00000
     26      19.7122      0.00000
     27      21.0794      0.00000
     28      21.1788      0.00000
     29      21.2590      0.00000
     30      21.5624      0.00000
     31      21.8899      0.00000
     32      22.1286      0.00000

 k-point     8 :       0.0000    0.0000    0.3333
  band No.  band energies     occupation 
      1      -2.5773      1.00000
      2      -0.4785      1.00000
      3       5.2363      1.00000
      4       5.8580      1.00000
      5       5.8614      1.00000
      6       5.9705      1.00000
      7       6.0347      1.00000
      8       6.4854      1.00000
      9       7.2642      1.00000
     10       7.5960      1.00000
     11       7.9262      1.00000
     12       7.9347      1.00000
     13       7.9379      1.00000
     14       8.0433      1.00000
     15       8.5591      1.00000
     16      13.2825      0.93800
     17      15.3961      0.00000
     18      15.8427      0.00000
     19      15.9033      0.00000
     20      15.9728      0.00000
     21      16.3630      0.00000
     22      16.4528      0.00000
     23      20.7491      0.00000
     24      20.8576      0.00000
     25      20.8642      0.00000
     26      20.9727      0.00000
     27      21.2802      0.00000
     28      21.3714      0.00000
     29      21.8513      0.00000
     30      22.4864      0.00000
     31      22.5988      0.00000
     32      23.1649      0.00000

 k-point     9 :       0.2500    0.0000    0.3333
  band No.  band energies     occupation 
      1      -2.0455      1.00000
      2       0.0465      1.00000
      3       2.1419      1.00000
      4       4.1735      1.00000
      5       4.3587      1.00000
      6       4.5742      1.00000
      7       6.3429      1.00000
      8       6.5686      1.00000
      9       8.1773      1.00000
     10       8.2107      1.00000
     11       8.8704      1.00000
     12       9.9621      1.00000
     13      10.2975      1.00000
     14      10.7693      1.00000
     15      11.8643      1.00000
     16      12.5683      1.00000
     17      13.9405      0.00000
     18      14.4857      0.00000
     19      14.8800      0.00000
     20      16.2103      0.00000
     21      16.9631      0.00000
     22      17.8110      0.00000
     23      18.1330      0.00000
     24      18.3638      0.00000
     25      18.7965      0.00000
     26      19.3196      0.00000
     27      19.9709      0.00000
     28      20.3412      0.00000
     29      20.7579      0.00000
     30      22.3061      0.00000
     31      22.6746      0.00000
     32      23.3041      0.00000

 k-point    10 :       0.5000    0.0000    0.3333
  band No.  band energies     occupation 
      1      -0.4612      1.00000
      2      -0.4612      1.00000
      3       1.6132      1.00000
      4       1.6132      1.00000
      5       3.9526      1.00000
      6       3.9526      1.00000
      7       5.9623      1.00000
      8       5.9623      1.00000
      9       9.5865      1.00000
     10       9.5865      1.00000
     11      11.3865      1.00000
     12      11.3865      1.00000
     13      12.2891      1.00000
     14      12.2891      1.00000
     15      13.3743      0.14454
     16      13.3743      0.14454
     17      14.1656      0.00000
     18      14.1656      0.00000
     19      14.5589      0.00000
     20      14.5589      0.00000
     21      15.5057      0.00000
     22      15.5057      0.00000
     23      16.3867      0.00000
     24      16.3867      0.00000
     25      18.1307      0.00000
     26      18.1307      0.00000
     27      19.8722      0.00000
     28      19.8722      0.00000
     29      21.6967      0.00000
     30      21.6967      0.00000
     31      22.2908      0.00000
     32      22.2908      0.00000

 k-point    11 :       0.2500    0.2500    0.3333
  band No.  band energies     occupation 
      1      -1.0137      1.00000
      2       0.9598      1.00000
      3       1.0972      1.00000
      4       1.4318      1.00000
      5       3.0434      1.00000
      6       3.4832      1.00000
      7       7.4407      1.00000
      8       7.9669      1.00000
      9       9.0287      1.00000
     10       9.3669      1.00000
     11       9.7848      1.00000
     12      10.9228      1.00000
     13      11.3271      1.00000
     14      11.3368      1.00000
     15      12.4757      1.00000
     16      13.1828      0.99999
     17      13.7661      0.00000
     18      14.6576      0.00000
     19      15.4855      0.00000
     20      15.7145      0.00000
     21      16.8794      0.00000
     22      16.9849      0.00000
     23      17.5313      0.00000
     24      17.6965      0.00000
     25      18.2033      0.00000
     26      18.6711      0.00000
     27      19.3341      0.00000
     28      19.7632      0.00000
     29      20.1544      0.00000
     30      20.2840      0.00000
     31      21.1314      0.00000
     32      21.7934      0.00000

 k-point    12 :       0.5000    0.2500    0.3333
  band No.  band energies     occupation 
      1      -0.9411      1.00000
      2       1.0364      1.00000
      3       1.1584      1.00000
      4       1.3182      1.00000
      5       3.1095      1.00000
      6       3.3719      1.00000
      7       7.0600      1.00000
      8       7.5571      1.00000
      9       8.9387      1.00000
     10       9.1953      1.00000
     11       9.5079      1.00000
     12      11.1933      1.00000
     13      11.4795      1.00000
     14      11.8243      1.00000
     15      13.0782      1.00000
     16      13.7693      0.00000
     17      14.4293      0.00000
     18      14.7846      0.00000
     19      15.2719      0.00000
     20      16.0559      0.00000
     21      16.4422      0.00000
     22      17.0402      0.00000
     23      17.3374      0.00000
     24      17.4213      0.00000
     25      17.8441      0.00000
     26      18.5648      0.00000
     27      18.9304      0.00000
     28      19.4507      0.00000
     29      19.9016      0.00000
     30      20.5633      0.00000
     31      21.2633      0.00000
     32      22.0748      0.00000

 k-point    13 :      -0.2500    0.2500    0.3333
  band No.  band energies     occupation 
      1      -2.0195      1.00000
      2       0.0726      1.00000
      3       2.4328      1.00000
      4       3.9115      1.00000
      5       4.3559      1.00000
      6       4.4766      1.00000
      7       5.9219      1.00000
      8       6.3176      1.00000
      9       8.1973      1.00000
     10       8.3017      1.00000
     11       8.6536      1.00000
     12      10.1836      1.00000
     13      10.4532      1.00000
     14      10.9804      1.00000
     15      12.5780      1.00000
     16      12.7869      1.00000
     17      13.3962      0.04674
     18      14.5116      0.00000
     19      14.8417      0.00000
     20      16.5864      0.00000
     21      16.9900      0.00000
     22      17.9667      0.00000
     23      18.3746      0.00000
     24      18.4720      0.00000
     25      19.2114      0.00000
     26      19.2343      0.00000
     27      20.2303      0.00000
     28      20.4058      0.00000
     29      20.6248      0.00000
     30      21.6674      0.00000
     31      22.2037      0.00000
     32      23.0486      0.00000

 k-point    14 :       0.5000    0.5000    0.3333
  band No.  band energies     occupation 
      1      -0.5562      1.00000
      2      -0.1111      1.00000
      3       1.5152      1.00000
      4       1.9612      1.00000
      5       3.3835      1.00000
      6       3.8183      1.00000
      7       5.4037      1.00000
      8       5.8020      1.00000
      9       9.5687      1.00000
     10       9.9683      1.00000
     11      11.5274      1.00000
     12      11.9805      1.00000
     13      12.0912      1.00000
     14      12.3807      1.00000
     15      12.7814      1.00000
     16      13.6367      0.00000
     17      14.0568      0.00000
     18      14.2939      0.00000
     19      14.5214      0.00000
     20      14.6995      0.00000
     21      15.8063      0.00000
     22      16.2599      0.00000
     23      16.5223      0.00000
     24      17.0114      0.00000
     25      18.2888      0.00000
     26      19.0706      0.00000
     27      19.5644      0.00000
     28      20.1208      0.00000
     29      21.4348      0.00000
     30      22.0100      0.00000
     31      22.2300      0.00000
     32      22.7826      0.00000


--------------------------------------------------------------------------------------------------------


 soft charge-density along one line, spin component           1
         0         1         2         3         4         5         6         7         8         9
 total charge-density along one line
 
 soft charge-density along one line, spin component           2
         0         1         2         3         4         5         6         7         8         9
 total charge-density along one line
 
 pseudopotential strength for first ion, spin component:           1
 17.605  24.557   0.000  -0.002  -0.001   0.000  -0.003  -0.002
 24.557  34.260   0.000  -0.002  -0.001   0.000  -0.004  -0.003
  0.000   0.000   4.053   0.000  -0.000   7.546   0.000   0.000
 -0.002  -0.002   0.000   4.053   0.000   0.000   7.546   0.000
 -0.001  -0.001  -0.000   0.000   4.053   0.000   0.000   7.546
  0.000   0.000   7.546   0.000   0.000  14.062   0.000  -0.000
 -0.003  -0.004   0.000   7.546   0.000   0.000  14.062   0.001
 -0.002  -0.003   0.000   0.000   7.546  -0.000   0.001  14.063
 pseudopotential strength for first ion, spin component:           2
 17.605  24.557   0.000  -0.001  -0.001   0.000  -0.003  -0.002
 24.557  34.259   0.000  -0.002  -0.001   0.000  -0.004  -0.003
  0.000   0.000   4.052   0.000  -0.000   7.546   0.000   0.000
 -0.001  -0.002   0.000   4.052   0.000   0.000   7.546   0.000
 -0.001  -0.001  -0.000   0.000   4.053   0.000   0.000   7.546
  0.000   0.000   7.546   0.000   0.000  14.062   0.000  -0.000
 -0.003  -0.004   0.000   7.546   0.000   0.000  14.061   0.001
 -0.002  -0.003   0.000   0.000   7.546  -0.000   0.001  14.062
 total augmentation occupancy for first ion, spin component:           1
  7.437  -3.467   0.000   0.232   0.239   0.000  -0.081  -0.078
 -3.467   1.957   0.000  -0.147  -0.161   0.000   0.043   0.042
  0.000   0.000   3.296   0.000  -0.000  -0.871   0.000   0.000
  0.232  -0.147   0.000   3.542   0.079   0.000  -0.946  -0.018
  0.239  -0.161  -0.000   0.079   3.567   0.000  -0.018  -0.945
  0.000   0.000  -0.871   0.000   0.000   0.249   0.000  -0.000
 -0.081   0.043   0.000  -0.946  -0.018   0.000   0.273   0.005
 -0.078   0.042  -0.000  -0.018  -0.945   0.000   0.005   0.271
 total augmentation occupancy for first ion, spin component:           2
 -0.003   0.002   0.000  -0.001   0.000   0.000   0.001  -0.000
  0.002  -0.001   0.000   0.001  -0.000   0.000  -0.000   0.000
  0.000   0.000  -0.000   0.000   0.000   0.000   0.000   0.000
 -0.001   0.001   0.000   0.000   0.000   0.000   0.000  -0.000
  0.000  -0.000   0.000   0.000   0.000   0.000  -0.000  -0.000
  0.000   0.000   0.000   0.000   0.000  -0.000   0.000   0.000
  0.001  -0.000   0.000   0.000  -0.000   0.000  -0.000   0.000
 -0.000   0.000   0.000  -0.000  -0.000   0.000   0.000   0.000


------------------------ aborting loop because EDIFF is reached ----------------------------------------


    CHARGE:  cpu time    0.1180: real time    0.1213
    FORLOC:  cpu time    0.0040: real time    0.0055
    FORNL :  cpu time    0.4459: real time    0.4572
    FORCOR:  cpu time    0.1150: real time    0.1198
    FORHAR:  cpu time    0.0080: real time    0.0103
    MIXING:  cpu time    0.0050: real time    0.0057
    OFIELD:  cpu time    0.0000: real time    0.0039

 VOLUME and BASIS-vectors are now :
 -----------------------------------------------------------------------------
  energy-cutoff  :      520.00
  volume of cell :       91.90
      direct lattice vectors                 reciprocal lattice vectors
     2.398050000 -4.012100000  0.000000000     0.208502742 -0.124623015  0.000000000
     2.398050000  4.012100000  0.000000000     0.208502742  0.124623015  0.000000000
     0.000000000  0.000000000  4.776000000     0.000000000  0.000000000  0.209380235

  length of vectors
     4.674140585  4.674140585  4.776000000     0.242907985  0.242907985  0.209380235


 FORCES acting on ions
    electron-ion (+dipol)            ewald-force                    non-local-force                 convergence-correction
 -----------------------------------------------------------------------------------------------
   0.311E+01 -.337E-14 0.333E+01   -.252E+01 0.155E-14 -.253E+01   -.717E+00 0.000E+00 -.973E+00   -.693E-03 0.351E-14 -.885E-04
   -.311E+01 0.391E-13 -.333E+01   0.252E+01 0.222E-15 0.253E+01   0.717E+00 0.000E+00 0.973E+00   0.693E-03 -.247E-14 0.885E-04
   -.311E+01 0.565E-14 0.333E+01   0.252E+01 -.178E-14 -.253E+01   0.717E+00 0.000E+00 -.973E+00   0.693E-03 0.343E-14 -.885E-04
   0.311E+01 -.141E-13 -.333E+01   -.252E+01 0.000E+00 0.253E+01   -.717E+00 0.000E+00 0.973E+00   -.693E-03 -.250E-14 0.885E-04
   0.314E-13 0.290E+01 0.417E-13   0.588E-15 -.225E+01 -.934E-15   0.000E+00 -.519E+00 0.000E+00   0.530E-14 0.211E-02 0.108E-14
   0.296E-14 0.290E+01 -.644E-13   0.180E-14 -.225E+01 -.518E-14   -.139E-16 -.519E+00 0.000E+00   -.573E-14 0.211E-02 -.180E-14
   -.534E-13 -.290E+01 0.621E-13   -.245E-15 0.225E+01 -.377E-14   0.139E-16 0.519E+00 0.000E+00   -.567E-14 -.211E-02 0.151E-14
   0.404E-13 -.290E+01 -.613E-13   -.348E-14 0.225E+01 -.269E-14   -.694E-17 0.519E+00 0.000E+00   0.495E-14 -.211E-02 -.146E-14
 -----------------------------------------------------------------------------------------------
   -.621E-13 -.113E-12 0.281E-13   0.441E-15 -.711E-14 0.341E-14   0.104E-15 -.111E-15 0.000E+00   -.887E-15 0.997E-16 -.298E-15
 
 
 POSITION                                       TOTAL-FORCE (eV/Angst)
 -----------------------------------------------------------------------------------
      1.56832      0.00000      3.95453        -0.125864      0.000000     -0.172405
      3.22778      0.00000      0.82147         0.125864      0.000000      0.172405
      0.82973      0.00000      1.56653         0.125864      0.000000     -0.172405
      3.96637      0.00000      3.20947        -0.125864      0.000000      0.172405
      2.39805     -1.74928      2.38800         0.000000      0.132534      0.000000
      2.39805      2.26282      0.00000         0.000000      0.132534      0.000000
      2.39805      1.74928      2.38800         0.000000     -0.132534      0.000000
      2.39805     -2.26282      0.00000         0.000000     -0.132534      0.000000
 -----------------------------------------------------------------------------------
    total drift:                               -0.000000     -0.000000      0.000000


--------------------------------------------------------------------------------------------------------



  FREE ENERGIE OF THE ION-ELECTRON SYSTEM (eV)
  ---------------------------------------------------
  free  energy   TOTEN  =       -37.39528597 eV

  energy  without entropy=      -37.38657349  energy(sigma->0) =      -37.39092973
 


--------------------------------------------------------------------------------------------------------


    POTLOK:  cpu time    0.4879: real time    0.4918


--------------------------------------------------------------------------------------------------------


     LOOP+:  cpu time   23.0205: real time   24.0814
    4ORBIT:  cpu time    0.0000: real time    0.0000

 total amount of memory used by VASP on root node    32157. kBytes
========================================================================

   base      :      30000. kBytes
   nonl-proj :        212. kBytes
   fftplans  :        857. kBytes
   grid      :        695. kBytes
   one-center:          6. kBytes
   wavefun   :        387. kBytes
 
  
  
 General timing and accounting informations for this job:
 ========================================================
  
                  Total CPU time used (sec):       33.933
                            User time (sec):       32.392
                          System time (sec):        1.541
                         Elapsed time (sec):       35.685
  
                   Maximum memory used (kb):      164044.
                   Average memory used (kb):           0.
  
                          Minor page faults:        76328
                          Major page faults:          386
                 Voluntary context switches:        18323
