<?xml version="1.0" encoding="ISO-8859-1"?>
<modeling>
 <generator>
  <i name="program" type="string">vasp </i>
  <i name="version" type="string">5.4.1  </i>
  <i name="subversion" type="string">24Jun15 (build Nov 23 2015 09:58:10) complex                          parallel </i>
  <i name="platform" type="string">LinuxIFC </i>
  <i name="date" type="string">2020 05 13 </i>
  <i name="time" type="string">18:18:28 </i>
 </generator>
 <incar>
  <i type="string" name="SYSTEM"> matgen</i>
  <i type="int" name="ISTART">     0</i>
  <i type="string" name="PREC">accurate</i>
  <i type="string" name="ALGO"> Normal</i>
  <i type="logical" name="LDIAG"> T  </i>
  <i type="logical" name="ADDGRID"> T  </i>
  <i type="int" name="ISPIN">     2</i>
  <i name="AMIX">      0.10000000</i>
  <i name="BMIX">      1.20000000</i>
  <i type="int" name="INIWAV">     1</i>
  <i type="int" name="NELM">   140</i>
  <i type="int" name="NELMIN">     5</i>
  <i type="int" name="IBRION">    -1</i>
  <i name="EDIFF">      0.00010000</i>
  <i name="EDIFFG">     -0.01000000</i>
  <i type="int" name="NSW">     0</i>
  <i type="int" name="ISIF">     0</i>
  <i type="int" name="NBLOCK">     1</i>
  <i type="int" name="KBLOCK">     5</i>
  <i name="ENCUT">    520.00000000</i>
  <i name="POTIM">      0.05000000</i>
  <i type="logical" name="LREAL"> F  </i>
  <i type="int" name="ISMEAR">     0</i>
  <i name="SIGMA">      0.05000000</i>
  <i name="WEIMIN">      0.00000000</i>
  <i type="int" name="NWRITE">     2</i>
  <i type="logical" name="LCORR"> T  </i>
  <i type="logical" name="LWAVE"> F  </i>
  <i type="logical" name="LCHARG"> F  </i>
  <v type="int" name="KPOINT_BSE">    -1     0     0     0</v>
  <i type="int" name="NELM">   140</i>
 </incar>
 <kpoints>
  <generation param="Gamma">
   <v type="int" name="divisions">       4        4        3 </v>
   <v name="usershift">      0.00000000       0.00000000       0.00000000 </v>
   <v name="genvec1">      0.25000000      -0.00000000       0.00000000 </v>
   <v name="genvec2">     -0.00000000       0.25000000       0.00000000 </v>
   <v name="genvec3">      0.00000000       0.00000000       0.33333333 </v>
   <v name="shift">      0.00000000       0.00000000       0.00000000 </v>
  </generation>
  <varray name="kpointlist" >
   <v>       0.00000000       0.00000000       0.00000000 </v>
   <v>       0.25000000       0.00000000       0.00000000 </v>
   <v>       0.50000000       0.00000000       0.00000000 </v>
   <v>       0.25000000       0.25000000       0.00000000 </v>
   <v>       0.50000000       0.25000000       0.00000000 </v>
   <v>      -0.25000000       0.25000000       0.00000000 </v>
   <v>       0.50000000       0.50000000       0.00000000 </v>
   <v>       0.00000000       0.00000000       0.33333333 </v>
   <v>       0.25000000       0.00000000       0.33333333 </v>
   <v>       0.50000000       0.00000000       0.33333333 </v>
   <v>       0.25000000       0.25000000       0.33333333 </v>
   <v>       0.50000000       0.25000000       0.33333333 </v>
   <v>      -0.25000000       0.25000000       0.33333333 </v>
   <v>       0.50000000       0.50000000       0.33333333 </v>
  </varray>
  <varray name="weights" >
   <v>       0.02083333 </v>
   <v>       0.08333333 </v>
   <v>       0.04166667 </v>
   <v>       0.04166667 </v>
   <v>       0.08333333 </v>
   <v>       0.04166667 </v>
   <v>       0.02083333 </v>
   <v>       0.04166667 </v>
   <v>       0.16666667 </v>
   <v>       0.08333333 </v>
   <v>       0.08333333 </v>
   <v>       0.16666667 </v>
   <v>       0.08333333 </v>
   <v>       0.04166667 </v>
  </varray>
 </kpoints>
 <parameters>
  <separator name="general" >
   <i type="string" name="SYSTEM">matgen</i>
   <i type="logical" name="LCOMPAT"> F  </i>
  </separator>
  <separator name="electronic" >
   <i type="string" name="PREC">accura</i>
   <i name="ENMAX">    520.00000000</i>
   <i name="ENAUG">    322.06900000</i>
   <i name="EDIFF">      0.00010000</i>
   <i type="int" name="IALGO">    38</i>
   <i type="int" name="IWAVPR">    10</i>
   <i type="int" name="NBANDS">    32</i>
   <i name="NELECT">     32.00000000</i>
   <i type="int" name="TURBO">     0</i>
   <i type="int" name="IRESTART">     0</i>
   <i type="int" name="NREBOOT">     0</i>
   <i type="int" name="NMIN">     0</i>
   <i name="EREF">      0.00000000</i>
   <separator name="electronic smearing" >
    <i type="int" name="ISMEAR">     0</i>
    <i name="SIGMA">      0.05000000</i>
    <i name="KSPACING">      0.50000000</i>
    <i type="logical" name="KGAMMA"> T  </i>
   </separator>
   <separator name="electronic projectors" >
    <i type="logical" name="LREAL"> F  </i>
    <v name="ROPT">      0.00000000</v>
    <i type="int" name="LMAXPAW">  -100</i>
    <i type="int" name="LMAXMIX">     2</i>
    <i type="logical" name="NLSPLINE"> F  </i>
   </separator>
   <separator name="electronic startup" >
    <i type="int" name="ISTART">     0</i>
    <i type="int" name="ICHARG">     2</i>
    <i type="int" name="INIWAV">     1</i>
   </separator>
   <separator name="electronic spin" >
    <i type="int" name="ISPIN">     2</i>
    <i type="logical" name="LNONCOLLINEAR"> F  </i>
    <v name="MAGMOM">      1.00000000      1.00000000      1.00000000      1.00000000      1.00000000      1.00000000      1.00000000      1.00000000</v>
    <i name="NUPDOWN">     -1.00000000</i>
    <i type="logical" name="LSORBIT"> F  </i>
    <v name="SAXIS">      0.00000000      0.00000000      1.00000000</v>
    <i type="logical" name="LSPIRAL"> F  </i>
    <v name="QSPIRAL">      0.00000000      0.00000000      0.00000000</v>
    <i type="logical" name="LZEROZ"> F  </i>
   </separator>
   <separator name="electronic exchange-correlation" >
    <i type="logical" name="LASPH"> F  </i>
    <i type="logical" name="LMETAGGA"> F  </i>
   </separator>
   <separator name="electronic convergence" >
    <i type="int" name="NELM">   140</i>
    <i type="int" name="NELMDL">    -5</i>
    <i type="int" name="NELMIN">     5</i>
    <i name="ENINI">    520.00000000</i>
    <separator name="electronic convergence detail" >
     <i type="logical" name="LDIAG"> T  </i>
     <i type="logical" name="LSUBROT"> F  </i>
     <i name="WEIMIN">      0.00000000</i>
     <i name="EBREAK">      0.00000078</i>
     <i name="DEPER">      0.30000000</i>
     <i type="int" name="NRMM">     4</i>
     <i name="TIME">      0.40000000</i>
    </separator>
   </separator>
   <separator name="electronic mixer" >
    <i name="AMIX">      0.10000000</i>
    <i name="BMIX">      1.20000000</i>
    <i name="AMIN">      0.10000000</i>
    <i name="AMIX_MAG">      0.40000000</i>
    <i name="BMIX_MAG">      1.20000000</i>
    <separator name="electronic mixer details" >
     <i type="int" name="IMIX">     4</i>
     <i type="logical" name="MIXFIRST"> F  </i>
     <i type="int" name="MAXMIX">   -45</i>
     <i name="WC">    100.00000000</i>
     <i type="int" name="INIMIX">     1</i>
     <i type="int" name="MIXPRE">     1</i>
     <i type="int" name="MREMOVE">     5</i>
    </separator>
   </separator>
   <separator name="electronic dipolcorrection" >
    <i type="logical" name="LDIPOL"> F  </i>
    <i type="logical" name="LMONO"> F  </i>
    <i type="int" name="IDIPOL">     0</i>
    <i name="EPSILON">      1.00000000</i>
    <v name="DIPOL">   -100.00000000   -100.00000000   -100.00000000</v>
    <i name="EFIELD">      0.00000000</i>
   </separator>
  </separator>
  <separator name="grids" >
   <i type="int" name="NGX">    36</i>
   <i type="int" name="NGY">    36</i>
   <i type="int" name="NGZ">    36</i>
   <i type="int" name="NGXF">    72</i>
   <i type="int" name="NGYF">    72</i>
   <i type="int" name="NGZF">    72</i>
   <i type="logical" name="ADDGRID"> T  </i>
  </separator>
  <separator name="ionic" >
   <i type="int" name="NSW">     0</i>
   <i type="int" name="IBRION">    -1</i>
   <i type="int" name="ISIF">     0</i>
   <i name="PSTRESS">      0.00000000</i>
   <i name="EDIFFG">     -0.01000000</i>
   <i type="int" name="NFREE">     0</i>
   <i name="POTIM">      0.05000000</i>
   <i name="SMASS">     -3.00000000</i>
   <i name="SCALEE">      1.00000000</i>
  </separator>
  <separator name="ionic md" >
   <i name="TEBEG">      0.00010000</i>
   <i name="TEEND">      0.00010000</i>
   <i type="int" name="NBLOCK">     1</i>
   <i type="int" name="KBLOCK">     1</i>
   <i type="int" name="NPACO">   256</i>
   <i name="APACO">     16.00000000</i>
  </separator>
  <separator name="symmetry" >
   <i type="int" name="ISYM">     2</i>
   <i name="SYMPREC">      0.00001000</i>
  </separator>
  <separator name="dos" >
   <i type="logical" name="LORBIT"> F  </i>
   <v name="RWIGS">     -1.00000000</v>
   <i type="int" name="NEDOS">   301</i>
   <i name="EMIN">     10.00000000</i>
   <i name="EMAX">    -10.00000000</i>
   <i name="EFERMI">      0.00000000</i>
  </separator>
  <separator name="writing" >
   <i type="int" name="NWRITE">     2</i>
   <i type="logical" name="LWAVE"> F  </i>
   <i type="logical" name="LCHARG"> F  </i>
   <i type="logical" name="LPARD"> F  </i>
   <i type="logical" name="LVTOT"> F  </i>
   <i type="logical" name="LVHAR"> F  </i>
   <i type="logical" name="LELF"> F  </i>
   <i type="logical" name="LOPTICS"> F  </i>
   <v name="STM">      0.00000000      0.00000000      0.00000000      0.00000000      0.00000000      0.00000000      0.00000000</v>
  </separator>
  <separator name="performance" >
   <i type="int" name="NPAR">     8</i>
   <i type="int" name="NSIM">     4</i>
   <i type="int" name="NBLK">    -1</i>
   <i type="logical" name="LPLANE"> T  </i>
   <i type="logical" name="LSCALAPACK"> T  </i>
   <i type="logical" name="LSCAAWARE"> T  </i>
   <i type="logical" name="LSCALU"> F  </i>
   <i type="logical" name="LASYNC"> F  </i>
   <i type="logical" name="LORBITALREAL"> F  </i>
  </separator>
  <separator name="miscellaneous" >
   <i type="int" name="IDIOT">     3</i>
   <i type="logical" name="LMUSIC"> F  </i>
   <v name="POMASS">     28.08500000</v>
   <v name="DARWINR">      0.00000000</v>
   <v name="DARWINV">      1.00000000</v>
   <i type="logical" name="LCORR"> T  </i>
  </separator>
  <i type="logical" name="GGA_COMPAT"> T  </i>
  <i type="logical" name="LBERRY"> F  </i>
  <i type="int" name="ICORELEVEL">     0</i>
  <i type="logical" name="LDAU"> F  </i>
  <i type="int" name="I_CONSTRAINED_M">     0</i>
  <separator name="electronic exchange-correlation" >
   <i type="string" name="GGA">--</i>
   <i type="int" name="VOSKOWN">     0</i>
   <i type="logical" name="LHFCALC"> F  </i>
   <i type="string" name="PRECFOCK"></i>
   <i type="logical" name="LSYMGRAD"> F  </i>
   <i type="logical" name="LHFONE"> F  </i>
   <i type="logical" name="LRHFCALC"> F  </i>
   <i type="logical" name="LTHOMAS"> F  </i>
   <i type="logical" name="LMODELHF"> F  </i>
   <i name="ENCUT4O">     -1.00000000</i>
   <i type="int" name="EXXOEP">     0</i>
   <i type="int" name="FOURORBIT">     0</i>
   <i name="AEXX">      0.00000000</i>
   <i name="HFALPHA">      0.00000000</i>
   <i name="MCALPHA">      0.00000000</i>
   <i name="ALDAX">      1.00000000</i>
   <i name="AGGAX">      1.00000000</i>
   <i name="ALDAC">      1.00000000</i>
   <i name="AGGAC">      1.00000000</i>
   <i type="int" name="NKREDX">     1</i>
   <i type="int" name="NKREDY">     1</i>
   <i type="int" name="NKREDZ">     1</i>
   <i type="logical" name="SHIFTRED"> F  </i>
   <i type="logical" name="ODDONLY"> F  </i>
   <i type="logical" name="EVENONLY"> F  </i>
   <i type="int" name="LMAXFOCK">     0</i>
   <i type="int" name="NMAXFOCKAE">     0</i>
   <i type="logical" name="LFOCKAEDFT"> F  </i>
   <i name="HFSCREEN">      0.00000000</i>
   <i name="HFSCREENC">      0.00000000</i>
   <i type="int" name="NBANDSGWLOW">     0</i>
  </separator>
  <separator name="vdW DFT" >
   <i type="logical" name="LUSE_VDW"> F  </i>
   <i name="Zab_VDW">     -0.84910000</i>
   <i name="PARAM1">      0.12340000</i>
   <i name="PARAM2">      1.00000000</i>
   <i name="PARAM3">      0.00000000</i>
  </separator>
  <separator name="model GW" >
   <i type="int" name="MODEL_GW">     0</i>
   <i name="MODEL_EPS0">      6.89263943</i>
   <i name="MODEL_ALPHA">      1.00000000</i>
  </separator>
  <separator name="linear response parameters" >
   <i type="logical" name="LEPSILON"> F  </i>
   <i type="logical" name="LRPA"> F  </i>
   <i type="logical" name="LNABLA"> F  </i>
   <i type="logical" name="LVEL"> F  </i>
   <i type="int" name="KINTER">     0</i>
   <i name="CSHIFT">      0.10000000</i>
   <i name="OMEGAMAX">     -1.00000000</i>
   <i name="DEG_THRESHOLD">      0.00200000</i>
  </separator>
  <separator name="orbital magnetization" >
   <i type="logical" name="NUCIND"> F  </i>
   <v name="MAGPOS">      0.00000000      0.00000000      0.00000000</v>
   <i type="logical" name="LNICSALL"> T  </i>
   <i type="logical" name="ORBITALMAG"> F  </i>
   <i type="logical" name="LMAGBLOCH"> F  </i>
   <i type="logical" name="LCHIMAG"> F  </i>
   <i type="logical" name="LGAUGE"> T  </i>
   <i type="int" name="MAGATOM">     0</i>
   <v name="MAGDIPOL">      0.00000000      0.00000000      0.00000000</v>
   <v name="AVECCONST">      0.00000000      0.00000000      0.00000000</v>
  </separator>
  <separator name="response functions" >
   <i type="logical" name="LADDER"> F  </i>
   <i type="logical" name="LFXC"> F  </i>
   <i type="logical" name="LHARTREE"> T  </i>
   <i type="int" name="IBSE">     0</i>
   <v type="int" name="KPOINT">    -1     0     0     0</v>
   <i type="logical" name="LTCTE"> F  </i>
   <i type="logical" name="LTETE"> F  </i>
   <i type="logical" name="LTRIPLET"> F  </i>
   <i type="logical" name="LFXCEPS"> F  </i>
   <i type="logical" name="LFXHEG"> F  </i>
   <i type="int" name="NATURALO">     0</i>
   <i type="logical" name="L2ORDER"> F  </i>
   <i type="logical" name="LUSEW"> F  </i>
   <i name="ENCUTGW">     -2.00000000</i>
   <i name="ENCUTGWSOFT">     -2.00000000</i>
   <i name="ENCUTLF">     -1.00000000</i>
   <i type="int" name="LMAXMP2">    -1</i>
   <i name="SCISSOR">      0.00000000</i>
   <i type="int" name="NOMEGA">     0</i>
   <i type="int" name="NOMEGAR">     0</i>
   <i type="int" name="NBANDSGW">    -1</i>
   <i type="int" name="NBANDSO">    -1</i>
   <i type="int" name="NBANDSV">    -1</i>
   <i type="int" name="NELM">   140</i>
   <i type="int" name="NELMHF">     1</i>
   <i type="int" name="DIM">     3</i>
   <i type="int" name="ANTIRES">     0</i>
   <i name="OMEGAMAX">    -30.00000000</i>
   <i name="OMEGAMIN">    -30.00000000</i>
   <i name="OMEGATL">   -200.00000000</i>
   <i type="int" name="OMEGAGRID">     0</i>
   <i name="CSHIFT">     -0.10000000</i>
   <i type="logical" name="SELFENERGY"> F  </i>
   <i type="logical" name="LSPECTRAL"> F  </i>
   <i type="logical" name="LSPECTRALGW"> F  </i>
   <i type="logical" name="LSINGLES"> F  </i>
   <i type="logical" name="LFERMIGW"> F  </i>
   <i type="logical" name="ODDONLYGW"> F  </i>
   <i type="logical" name="EVENONLYGW"> F  </i>
   <i type="int" name="NKREDLFX">     1</i>
   <i type="int" name="NKREDLFY">     1</i>
   <i type="int" name="NKREDLFZ">     1</i>
   <i type="int" name="MAXMEM">  1800</i>
   <i type="int" name="TELESCOPE">     0</i>
   <i type="int" name="TAUPAR">     1</i>
   <i type="int" name="OMEGAPAR">    -1</i>
   <i name="LAMBDA">      1.00000000</i>
  </separator>
  <separator name="External order field" >
   <i name="OFIELD_KAPPA">      0.00000000</i>
   <v name="OFIELD_K">      0.00000000      0.00000000      0.00000000</v>
   <i name="OFIELD_Q6_NEAR">      0.00000000</i>
   <i name="OFIELD_Q6_FAR">      0.00000000</i>
   <i name="OFIELD_A">      0.00000000</i>
  </separator>
 </parameters>
 <atominfo>
  <atoms>       8 </atoms>
  <types>       1 </types>
  <array name="atoms" >
   <dimension dim="1">ion</dimension>
   <field type="string">element</field>
   <field type="int">atomtype</field>
   <set>
    <rc><c>Si</c><c>   1</c></rc>
    <rc><c>Si</c><c>   1</c></rc>
    <rc><c>Si</c><c>   1</c></rc>
    <rc><c>Si</c><c>   1</c></rc>
    <rc><c>Si</c><c>   1</c></rc>
    <rc><c>Si</c><c>   1</c></rc>
    <rc><c>Si</c><c>   1</c></rc>
    <rc><c>Si</c><c>   1</c></rc>
   </set>
  </array>
  <array name="atomtypes" >
   <dimension dim="1">type</dimension>
   <field type="int">atomspertype</field>
   <field type="string">element</field>
   <field>mass</field>
   <field>valence</field>
   <field type="string">pseudopotential</field>
   <set>
    <rc><c>   8</c><c>Si</c><c>     28.08500000</c><c>      4.00000000</c><c>  PAW_PBE Si 05Jan2001                  </c></rc>
   </set>
  </array>
 </atominfo>
 <structure name="initialpos" >
  <crystal>
   <varray name="basis" >
    <v>       2.39805000      -4.01210000       0.00000000 </v>
    <v>       2.39805000       4.01210000       0.00000000 </v>
    <v>       0.00000000       0.00000000       4.77600000 </v>
   </varray>
   <i name="volume">     91.90185910 </i>
   <varray name="rec_basis" >
    <v>       0.20850274      -0.12462302       0.00000000 </v>
    <v>       0.20850274       0.12462302       0.00000000 </v>
    <v>       0.00000000       0.00000000       0.20938023 </v>
   </varray>
  </crystal>
  <varray name="positions" >
   <v>       0.32700000       0.32700000       0.82800000 </v>
   <v>       0.67300000       0.67300000       0.17200000 </v>
   <v>       0.17300000       0.17300000       0.32800000 </v>
   <v>       0.82700000       0.82700000       0.67200000 </v>
   <v>       0.71800000       0.28200000       0.50000000 </v>
   <v>       0.21800000       0.78200000       0.00000000 </v>
   <v>       0.28200000       0.71800000       0.50000000 </v>
   <v>       0.78200000       0.21800000       0.00000000 </v>
  </varray>
 </structure>
 <calculation>
  <scstep>
   <time name="dav">    2.37    2.66</time>
   <time name="total">    2.92    3.30</time>
   <energy>
    <i name="alphaZ">     23.44283774 </i>
    <i name="ewald">  -1176.20760172 </i>
    <i name="hartreedc">     -2.78954516 </i>
    <i name="XCdc">    -64.18144343 </i>
    <i name="pawpsdc">    704.27336627 </i>
    <i name="pawaedc">   -563.47813718 </i>
    <i name="eentropy">     -0.00274413 </i>
    <i name="bandstr">    315.39628876 </i>
    <i name="atom">    824.53081094 </i>
    <i name="e_fr_energy">     60.98383209 </i>
    <i name="e_wo_entrp">     60.98657622 </i>
    <i name="e_0_energy">     60.98520415 </i>
   </energy>
  </scstep>
  <scstep>
   <time name="dav">    0.83    0.87</time>
   <time name="total">    0.87    0.92</time>
   <energy>
    <i name="e_fr_energy">    -32.16586098 </i>
    <i name="e_wo_entrp">    -32.16313847 </i>
    <i name="e_0_energy">    -32.16449972 </i>
   </energy>
  </scstep>
  <scstep>
   <time name="dav">    0.86    0.87</time>
   <time name="total">    0.87    0.88</time>
   <energy>
    <i name="e_fr_energy">    -35.75207703 </i>
    <i name="e_wo_entrp">    -35.75049370 </i>
    <i name="e_0_energy">    -35.75128537 </i>
   </energy>
  </scstep>
  <scstep>
   <time name="dav">    0.80    0.83</time>
   <time name="total">    0.82    0.85</time>
   <energy>
    <i name="e_fr_energy">    -35.77265108 </i>
    <i name="e_wo_entrp">    -35.77104737 </i>
    <i name="e_0_energy">    -35.77184923 </i>
   </energy>
  </scstep>
  <scstep>
   <time name="dav">    0.83    0.83</time>
   <time name="total">    1.39    1.42</time>
   <energy>
    <i name="e_fr_energy">    -35.77274948 </i>
    <i name="e_wo_entrp">    -35.77114561 </i>
    <i name="e_0_energy">    -35.77194754 </i>
   </energy>
  </scstep>
  <scstep>
   <time name="dav">    0.80    0.82</time>
   <time name="total">    1.16    1.22</time>
   <energy>
    <i name="e_fr_energy">    -36.31098027 </i>
    <i name="e_wo_entrp">    -36.30625822 </i>
    <i name="e_0_energy">    -36.30861924 </i>
   </energy>
  </scstep>
  <scstep>
   <time name="dav">    4.12    4.17</time>
   <time name="total">    4.38    4.48</time>
   <energy>
    <i name="e_fr_energy">    -37.41755530 </i>
    <i name="e_wo_entrp">    -37.40844267 </i>
    <i name="e_0_energy">    -37.41299898 </i>
   </energy>
  </scstep>
  <scstep>
   <time name="dav">    0.77    0.79</time>
   <time name="total">    1.05    1.08</time>
   <energy>
    <i name="e_fr_energy">    -37.34857187 </i>
    <i name="e_wo_entrp">    -37.34375993 </i>
    <i name="e_0_energy">    -37.34616590 </i>
   </energy>
  </scstep>
  <scstep>
   <time name="dav">    0.77    0.79</time>
   <time name="total">    1.01    1.06</time>
   <energy>
    <i name="e_fr_energy">    -37.36370137 </i>
    <i name="e_wo_entrp">    -37.35864946 </i>
    <i name="e_0_energy">    -37.36117541 </i>
   </energy>
  </scstep>
  <scstep>
   <time name="dav">    0.79    0.81</time>
   <time name="total">    1.02    1.06</time>
   <energy>
    <i name="e_fr_energy">    -37.39035759 </i>
    <i name="e_wo_entrp">    -37.38213478 </i>
    <i name="e_0_energy">    -37.38624619 </i>
   </energy>
  </scstep>
  <scstep>
   <time name="dav">    0.80    0.83</time>
   <time name="total">    1.10    1.14</time>
   <energy>
    <i name="e_fr_energy">    -37.39198001 </i>
    <i name="e_wo_entrp">    -37.38341154 </i>
    <i name="e_0_energy">    -37.38769578 </i>
   </energy>
  </scstep>
  <scstep>
   <time name="dav">    0.77    0.79</time>
   <time name="total">    1.01    1.04</time>
   <energy>
    <i name="e_fr_energy">    -37.39456628 </i>
    <i name="e_wo_entrp">    -37.38584390 </i>
    <i name="e_0_energy">    -37.39020509 </i>
   </energy>
  </scstep>
  <scstep>
   <time name="dav">    0.78    0.80</time>
   <time name="total">    1.02    1.06</time>
   <energy>
    <i name="e_fr_energy">    -37.39513583 </i>
    <i name="e_wo_entrp">    -37.38646044 </i>
    <i name="e_0_energy">    -37.39079814 </i>
   </energy>
  </scstep>
  <scstep>
   <time name="dav">    0.66    0.68</time>
   <time name="total">    0.89    0.93</time>
   <energy>
    <i name="e_fr_energy">    -37.39526178 </i>
    <i name="e_wo_entrp">    -37.38657453 </i>
    <i name="e_0_energy">    -37.39091815 </i>
   </energy>
  </scstep>
  <scstep>
   <time name="dav">    1.45    1.48</time>
   <time name="total">    2.23    2.28</time>
   <energy>
    <i name="alphaZ">     23.44283774 </i>
    <i name="ewald">  -1176.20760172 </i>
    <i name="hartreedc">     -3.36017415 </i>
    <i name="XCdc">    -63.99507312 </i>
    <i name="pawpsdc">   4549.05266735 </i>
    <i name="pawaedc">  -4409.04724151 </i>
    <i name="eentropy">     -0.00871247 </i>
    <i name="bandstr">    218.19720098 </i>
    <i name="atom">    824.53081094 </i>
    <i name="e_fr_energy">    -37.39528597 </i>
    <i name="e_wo_entrp">    -37.38657349 </i>
    <i name="e_0_energy">    -37.39092973 </i>
   </energy>
  </scstep>
  <structure>
   <crystal>
    <varray name="basis" >
     <v>       2.39805000      -4.01210000       0.00000000 </v>
     <v>       2.39805000       4.01210000       0.00000000 </v>
     <v>       0.00000000       0.00000000       4.77600000 </v>
    </varray>
    <i name="volume">     91.90185910 </i>
    <varray name="rec_basis" >
     <v>       0.20850274      -0.12462302       0.00000000 </v>
     <v>       0.20850274       0.12462302       0.00000000 </v>
     <v>       0.00000000       0.00000000       0.20938023 </v>
    </varray>
   </crystal>
   <varray name="positions" >
    <v>       0.32700000       0.32700000       0.82800000 </v>
    <v>       0.67300000       0.67300000       0.17200000 </v>
    <v>       0.17300000       0.17300000       0.32800000 </v>
    <v>       0.82700000       0.82700000       0.67200000 </v>
    <v>       0.71800000       0.28200000       0.50000000 </v>
    <v>       0.21800000       0.78200000       0.00000000 </v>
    <v>       0.28200000       0.71800000       0.50000000 </v>
    <v>       0.78200000       0.21800000       0.00000000 </v>
   </varray>
  </structure>
  <varray name="forces" >
   <v>      -0.12586351       0.00000000      -0.17240462 </v>
   <v>       0.12586351       0.00000000       0.17240462 </v>
   <v>       0.12586351       0.00000000      -0.17240462 </v>
   <v>      -0.12586351       0.00000000       0.17240462 </v>
   <v>       0.00000000       0.13253387       0.00000000 </v>
   <v>       0.00000000       0.13253387       0.00000000 </v>
   <v>       0.00000000      -0.13253387       0.00000000 </v>
   <v>       0.00000000      -0.13253387       0.00000000 </v>
  </varray>
  <energy>
   <i name="e_fr_energy">    -37.39528597 </i>
   <i name="e_wo_entrp">    -37.39092973 </i>
   <i name="e_0_energy">     -0.00871247 </i>
  </energy>
  <time name="totalsc">   23.02   24.08</time>
  <eigenvalues>
   <array>
    <dimension dim="1">band</dimension>
    <dimension dim="2">kpoint</dimension>
    <dimension dim="3">spin</dimension>
    <field>eigene</field>
    <field>occ</field>
    <set>
     <set comment="spin 1">
      <set comment="kpoint 1">
       <r>   -3.2856    1.0000 </r>
       <r>    2.7525    1.0000 </r>
       <r>    3.1856    1.0000 </r>
       <r>    4.5836    1.0000 </r>
       <r>    5.1937    1.0000 </r>
       <r>    5.1945    1.0000 </r>
       <r>    5.3100    1.0000 </r>
       <r>    5.4033    1.0000 </r>
       <r>    5.8043    1.0000 </r>
       <r>   10.1664    1.0000 </r>
       <r>   10.3031    1.0000 </r>
       <r>   10.3161    1.0000 </r>
       <r>   10.4487    1.0000 </r>
       <r>   10.5510    1.0000 </r>
       <r>   10.8579    1.0000 </r>
       <r>   11.1209    1.0000 </r>
       <r>   11.7190    1.0000 </r>
       <r>   12.2127    1.0000 </r>
       <r>   12.4982    1.0000 </r>
       <r>   12.8163    1.0000 </r>
       <r>   12.9625    1.0000 </r>
       <r>   19.4554    0.0000 </r>
       <r>   20.1666    0.0000 </r>
       <r>   20.6674    0.0000 </r>
       <r>   21.1932    0.0000 </r>
       <r>   21.3882    0.0000 </r>
       <r>   21.9795    0.0000 </r>
       <r>   22.7168    0.0000 </r>
       <r>   23.7431    0.0000 </r>
       <r>   25.6216    0.0000 </r>
       <r>   25.7825    0.0000 </r>
       <r>   25.7925    0.0000 </r>
      </set>
      <set comment="kpoint 2">
       <r>   -2.7516    1.0000 </r>
       <r>    1.4509    1.0000 </r>
       <r>    3.2695    1.0000 </r>
       <r>    3.6878    1.0000 </r>
       <r>    3.6963    1.0000 </r>
       <r>    3.8913    1.0000 </r>
       <r>    7.2957    1.0000 </r>
       <r>    7.4761    1.0000 </r>
       <r>    7.6403    1.0000 </r>
       <r>    8.2122    1.0000 </r>
       <r>    9.3005    1.0000 </r>
       <r>    9.4247    1.0000 </r>
       <r>    9.7504    1.0000 </r>
       <r>   10.1649    1.0000 </r>
       <r>   10.3099    1.0000 </r>
       <r>   13.0579    1.0000 </r>
       <r>   13.2964    0.8735 </r>
       <r>   14.2059    0.0000 </r>
       <r>   14.5711    0.0000 </r>
       <r>   15.2328    0.0000 </r>
       <r>   15.7637    0.0000 </r>
       <r>   16.0980    0.0000 </r>
       <r>   16.9895    0.0000 </r>
       <r>   20.8089    0.0000 </r>
       <r>   20.9407    0.0000 </r>
       <r>   21.1321    0.0000 </r>
       <r>   21.1998    0.0000 </r>
       <r>   21.8135    0.0000 </r>
       <r>   21.9633    0.0000 </r>
       <r>   22.4286    0.0000 </r>
       <r>   22.5579    0.0000 </r>
       <r>   23.3534    0.0000 </r>
      </set>
      <set comment="kpoint 3">
       <r>   -1.1604    1.0000 </r>
       <r>   -1.1604    1.0000 </r>
       <r>    3.2693    1.0000 </r>
       <r>    3.2693    1.0000 </r>
       <r>    4.8040    1.0000 </r>
       <r>    4.8040    1.0000 </r>
       <r>    5.2211    1.0000 </r>
       <r>    5.2211    1.0000 </r>
       <r>    8.8637    1.0000 </r>
       <r>    8.8637    1.0000 </r>
       <r>    9.7025    1.0000 </r>
       <r>    9.7025    1.0000 </r>
       <r>   10.9340    1.0000 </r>
       <r>   10.9340    1.0000 </r>
       <r>   11.7828    1.0000 </r>
       <r>   11.7828    1.0000 </r>
       <r>   14.8474    0.0000 </r>
       <r>   14.8474    0.0000 </r>
       <r>   16.5576    0.0000 </r>
       <r>   16.5576    0.0000 </r>
       <r>   16.8094    0.0000 </r>
       <r>   16.8094    0.0000 </r>
       <r>   17.9129    0.0000 </r>
       <r>   17.9129    0.0000 </r>
       <r>   18.6514    0.0000 </r>
       <r>   18.6514    0.0000 </r>
       <r>   20.6165    0.0000 </r>
       <r>   20.6165    0.0000 </r>
       <r>   21.4960    0.0000 </r>
       <r>   21.4960    0.0000 </r>
       <r>   22.2197    0.0000 </r>
       <r>   22.2197    0.0000 </r>
      </set>
      <set comment="kpoint 4">
       <r>   -1.7154    1.0000 </r>
       <r>    0.2957    1.0000 </r>
       <r>    0.7390    1.0000 </r>
       <r>    4.2767    1.0000 </r>
       <r>    4.6775    1.0000 </r>
       <r>    6.0992    1.0000 </r>
       <r>    6.7208    1.0000 </r>
       <r>    6.7475    1.0000 </r>
       <r>    6.8467    1.0000 </r>
       <r>    6.8668    1.0000 </r>
       <r>    7.3101    1.0000 </r>
       <r>   10.3189    1.0000 </r>
       <r>   12.1821    1.0000 </r>
       <r>   12.4390    1.0000 </r>
       <r>   12.6933    1.0000 </r>
       <r>   12.9877    1.0000 </r>
       <r>   13.0018    1.0000 </r>
       <r>   13.3971    0.0443 </r>
       <r>   16.5160    0.0000 </r>
       <r>   16.7881    0.0000 </r>
       <r>   17.1815    0.0000 </r>
       <r>   17.4087    0.0000 </r>
       <r>   17.5727    0.0000 </r>
       <r>   17.9151    0.0000 </r>
       <r>   19.1155    0.0000 </r>
       <r>   19.1897    0.0000 </r>
       <r>   19.1964    0.0000 </r>
       <r>   19.2592    0.0000 </r>
       <r>   22.4338    0.0000 </r>
       <r>   22.9077    0.0000 </r>
       <r>   22.9404    0.0000 </r>
       <r>   23.2120    0.0000 </r>
      </set>
      <set comment="kpoint 5">
       <r>   -1.6427    1.0000 </r>
       <r>    0.3625    1.0000 </r>
       <r>    0.6257    1.0000 </r>
       <r>    4.3292    1.0000 </r>
       <r>    4.7706    1.0000 </r>
       <r>    6.2724    1.0000 </r>
       <r>    6.4028    1.0000 </r>
       <r>    6.5504    1.0000 </r>
       <r>    6.6662    1.0000 </r>
       <r>    6.9155    1.0000 </r>
       <r>    6.9203    1.0000 </r>
       <r>   11.0542    1.0000 </r>
       <r>   11.8173    1.0000 </r>
       <r>   12.6979    1.0000 </r>
       <r>   12.7591    1.0000 </r>
       <r>   12.9745    1.0000 </r>
       <r>   13.3048    0.8177 </r>
       <r>   13.3617    0.2411 </r>
       <r>   16.1880    0.0000 </r>
       <r>   16.8589    0.0000 </r>
       <r>   16.9389    0.0000 </r>
       <r>   17.2044    0.0000 </r>
       <r>   17.9986    0.0000 </r>
       <r>   18.4480    0.0000 </r>
       <r>   19.2019    0.0000 </r>
       <r>   19.4536    0.0000 </r>
       <r>   19.8203    0.0000 </r>
       <r>   20.1348    0.0000 </r>
       <r>   21.8483    0.0000 </r>
       <r>   22.4291    0.0000 </r>
       <r>   22.4696    0.0000 </r>
       <r>   22.6786    0.0000 </r>
      </set>
      <set comment="kpoint 6">
       <r>   -2.7256    1.0000 </r>
       <r>    1.7448    1.0000 </r>
       <r>    3.1769    1.0000 </r>
       <r>    3.3545    1.0000 </r>
       <r>    3.6835    1.0000 </r>
       <r>    3.7260    1.0000 </r>
       <r>    7.5536    1.0000 </r>
       <r>    7.6453    1.0000 </r>
       <r>    7.8856    1.0000 </r>
       <r>    7.9873    1.0000 </r>
       <r>    8.8514    1.0000 </r>
       <r>    8.9568    1.0000 </r>
       <r>    9.6286    1.0000 </r>
       <r>   10.3405    1.0000 </r>
       <r>   10.7499    1.0000 </r>
       <r>   12.9398    1.0000 </r>
       <r>   13.1045    1.0000 </r>
       <r>   14.2345    0.0000 </r>
       <r>   14.7865    0.0000 </r>
       <r>   15.7753    0.0000 </r>
       <r>   16.3798    0.0000 </r>
       <r>   16.4332    0.0000 </r>
       <r>   17.0736    0.0000 </r>
       <r>   19.9624    0.0000 </r>
       <r>   21.0406    0.0000 </r>
       <r>   21.1274    0.0000 </r>
       <r>   21.3583    0.0000 </r>
       <r>   21.6130    0.0000 </r>
       <r>   22.1567    0.0000 </r>
       <r>   22.4597    0.0000 </r>
       <r>   23.5477    0.0000 </r>
       <r>   23.7951    0.0000 </r>
      </set>
      <set comment="kpoint 7">
       <r>   -1.2560    1.0000 </r>
       <r>   -0.8100    1.0000 </r>
       <r>    2.6904    1.0000 </r>
       <r>    3.1433    1.0000 </r>
       <r>    4.6299    1.0000 </r>
       <r>    5.2469    1.0000 </r>
       <r>    5.2781    1.0000 </r>
       <r>    5.4374    1.0000 </r>
       <r>    8.2866    1.0000 </r>
       <r>    8.3427    1.0000 </r>
       <r>    9.1629    1.0000 </r>
       <r>   10.0010    1.0000 </r>
       <r>   10.9020    1.0000 </r>
       <r>   11.4322    1.0000 </r>
       <r>   11.9143    1.0000 </r>
       <r>   11.9275    1.0000 </r>
       <r>   15.4332    0.0000 </r>
       <r>   15.9804    0.0000 </r>
       <r>   16.4667    0.0000 </r>
       <r>   16.5238    0.0000 </r>
       <r>   16.8394    0.0000 </r>
       <r>   16.9436    0.0000 </r>
       <r>   17.2107    0.0000 </r>
       <r>   18.2232    0.0000 </r>
       <r>   19.5853    0.0000 </r>
       <r>   19.7085    0.0000 </r>
       <r>   21.0763    0.0000 </r>
       <r>   21.1766    0.0000 </r>
       <r>   21.2569    0.0000 </r>
       <r>   21.5599    0.0000 </r>
       <r>   21.8883    0.0000 </r>
       <r>   22.1263    0.0000 </r>
      </set>
      <set comment="kpoint 8">
       <r>   -2.5799    1.0000 </r>
       <r>   -0.4810    1.0000 </r>
       <r>    5.2334    1.0000 </r>
       <r>    5.8562    1.0000 </r>
       <r>    5.8591    1.0000 </r>
       <r>    5.9684    1.0000 </r>
       <r>    6.0320    1.0000 </r>
       <r>    6.4824    1.0000 </r>
       <r>    7.2613    1.0000 </r>
       <r>    7.5933    1.0000 </r>
       <r>    7.9239    1.0000 </r>
       <r>    7.9331    1.0000 </r>
       <r>    7.9353    1.0000 </r>
       <r>    8.0405    1.0000 </r>
       <r>    8.5560    1.0000 </r>
       <r>   13.2792    0.9487 </r>
       <r>   15.3939    0.0000 </r>
       <r>   15.8403    0.0000 </r>
       <r>   15.9012    0.0000 </r>
       <r>   15.9704    0.0000 </r>
       <r>   16.3602    0.0000 </r>
       <r>   16.4493    0.0000 </r>
       <r>   20.7469    0.0000 </r>
       <r>   20.8552    0.0000 </r>
       <r>   20.8619    0.0000 </r>
       <r>   20.9703    0.0000 </r>
       <r>   21.2774    0.0000 </r>
       <r>   21.3691    0.0000 </r>
       <r>   21.8485    0.0000 </r>
       <r>   22.4839    0.0000 </r>
       <r>   22.5960    0.0000 </r>
       <r>   23.1593    0.0000 </r>
      </set>
      <set comment="kpoint 9">
       <r>   -2.0480    1.0000 </r>
       <r>    0.0439    1.0000 </r>
       <r>    2.1394    1.0000 </r>
       <r>    4.1710    1.0000 </r>
       <r>    4.3562    1.0000 </r>
       <r>    4.5717    1.0000 </r>
       <r>    6.3404    1.0000 </r>
       <r>    6.5661    1.0000 </r>
       <r>    8.1747    1.0000 </r>
       <r>    8.2081    1.0000 </r>
       <r>    8.8677    1.0000 </r>
       <r>    9.9599    1.0000 </r>
       <r>   10.2950    1.0000 </r>
       <r>   10.7666    1.0000 </r>
       <r>   11.8619    1.0000 </r>
       <r>   12.5652    1.0000 </r>
       <r>   13.9381    0.0000 </r>
       <r>   14.4832    0.0000 </r>
       <r>   14.8774    0.0000 </r>
       <r>   16.2075    0.0000 </r>
       <r>   16.9606    0.0000 </r>
       <r>   17.8084    0.0000 </r>
       <r>   18.1302    0.0000 </r>
       <r>   18.3613    0.0000 </r>
       <r>   18.7941    0.0000 </r>
       <r>   19.3170    0.0000 </r>
       <r>   19.9687    0.0000 </r>
       <r>   20.3388    0.0000 </r>
       <r>   20.7551    0.0000 </r>
       <r>   22.3035    0.0000 </r>
       <r>   22.6720    0.0000 </r>
       <r>   23.3017    0.0000 </r>
      </set>
      <set comment="kpoint 10">
       <r>   -0.4637    1.0000 </r>
       <r>   -0.4637    1.0000 </r>
       <r>    1.6107    1.0000 </r>
       <r>    1.6107    1.0000 </r>
       <r>    3.9501    1.0000 </r>
       <r>    3.9501    1.0000 </r>
       <r>    5.9598    1.0000 </r>
       <r>    5.9598    1.0000 </r>
       <r>    9.5839    1.0000 </r>
       <r>    9.5839    1.0000 </r>
       <r>   11.3842    1.0000 </r>
       <r>   11.3842    1.0000 </r>
       <r>   12.2866    1.0000 </r>
       <r>   12.2866    1.0000 </r>
       <r>   13.3715    0.1639 </r>
       <r>   13.3715    0.1639 </r>
       <r>   14.1627    0.0000 </r>
       <r>   14.1627    0.0000 </r>
       <r>   14.5567    0.0000 </r>
       <r>   14.5567    0.0000 </r>
       <r>   15.5030    0.0000 </r>
       <r>   15.5030    0.0000 </r>
       <r>   16.3844    0.0000 </r>
       <r>   16.3844    0.0000 </r>
       <r>   18.1280    0.0000 </r>
       <r>   18.1280    0.0000 </r>
       <r>   19.8692    0.0000 </r>
       <r>   19.8692    0.0000 </r>
       <r>   21.6944    0.0000 </r>
       <r>   21.6944    0.0000 </r>
       <r>   22.2883    0.0000 </r>
       <r>   22.2883    0.0000 </r>
      </set>
      <set comment="kpoint 11">
       <r>   -1.0163    1.0000 </r>
       <r>    0.9573    1.0000 </r>
       <r>    1.0947    1.0000 </r>
       <r>    1.4291    1.0000 </r>
       <r>    3.0409    1.0000 </r>
       <r>    3.4805    1.0000 </r>
       <r>    7.4385    1.0000 </r>
       <r>    7.9639    1.0000 </r>
       <r>    9.0262    1.0000 </r>
       <r>    9.3647    1.0000 </r>
       <r>    9.7819    1.0000 </r>
       <r>   10.9205    1.0000 </r>
       <r>   11.3247    1.0000 </r>
       <r>   11.3341    1.0000 </r>
       <r>   12.4737    1.0000 </r>
       <r>   13.1802    1.0000 </r>
       <r>   13.7632    0.0000 </r>
       <r>   14.6553    0.0000 </r>
       <r>   15.4828    0.0000 </r>
       <r>   15.7117    0.0000 </r>
       <r>   16.8762    0.0000 </r>
       <r>   16.9823    0.0000 </r>
       <r>   17.5289    0.0000 </r>
       <r>   17.6939    0.0000 </r>
       <r>   18.2011    0.0000 </r>
       <r>   18.6686    0.0000 </r>
       <r>   19.3315    0.0000 </r>
       <r>   19.7609    0.0000 </r>
       <r>   20.1519    0.0000 </r>
       <r>   20.2812    0.0000 </r>
       <r>   21.1293    0.0000 </r>
       <r>   21.7911    0.0000 </r>
      </set>
      <set comment="kpoint 12">
       <r>   -0.9437    1.0000 </r>
       <r>    1.0339    1.0000 </r>
       <r>    1.1558    1.0000 </r>
       <r>    1.3156    1.0000 </r>
       <r>    3.1070    1.0000 </r>
       <r>    3.3694    1.0000 </r>
       <r>    7.0574    1.0000 </r>
       <r>    7.5549    1.0000 </r>
       <r>    8.9362    1.0000 </r>
       <r>    9.1926    1.0000 </r>
       <r>    9.5055    1.0000 </r>
       <r>   11.1904    1.0000 </r>
       <r>   11.4769    1.0000 </r>
       <r>   11.8216    1.0000 </r>
       <r>   13.0757    1.0000 </r>
       <r>   13.7666    0.0000 </r>
       <r>   14.4268    0.0000 </r>
       <r>   14.7820    0.0000 </r>
       <r>   15.2696    0.0000 </r>
       <r>   16.0534    0.0000 </r>
       <r>   16.4392    0.0000 </r>
       <r>   17.0376    0.0000 </r>
       <r>   17.3353    0.0000 </r>
       <r>   17.4190    0.0000 </r>
       <r>   17.8415    0.0000 </r>
       <r>   18.5623    0.0000 </r>
       <r>   18.9279    0.0000 </r>
       <r>   19.4482    0.0000 </r>
       <r>   19.8991    0.0000 </r>
       <r>   20.5606    0.0000 </r>
       <r>   21.2605    0.0000 </r>
       <r>   22.0721    0.0000 </r>
      </set>
      <set comment="kpoint 13">
       <r>   -2.0221    1.0000 </r>
       <r>    0.0700    1.0000 </r>
       <r>    2.4302    1.0000 </r>
       <r>    3.9089    1.0000 </r>
       <r>    4.3535    1.0000 </r>
       <r>    4.4740    1.0000 </r>
       <r>    5.9192    1.0000 </r>
       <r>    6.3154    1.0000 </r>
       <r>    8.1946    1.0000 </r>
       <r>    8.2991    1.0000 </r>
       <r>    8.6512    1.0000 </r>
       <r>   10.1809    1.0000 </r>
       <r>   10.4508    1.0000 </r>
       <r>   10.9777    1.0000 </r>
       <r>   12.5756    1.0000 </r>
       <r>   12.7841    1.0000 </r>
       <r>   13.3926    0.0575 </r>
       <r>   14.5097    0.0000 </r>
       <r>   14.8391    0.0000 </r>
       <r>   16.5837    0.0000 </r>
       <r>   16.9874    0.0000 </r>
       <r>   17.9643    0.0000 </r>
       <r>   18.3725    0.0000 </r>
       <r>   18.4695    0.0000 </r>
       <r>   19.2088    0.0000 </r>
       <r>   19.2319    0.0000 </r>
       <r>   20.2279    0.0000 </r>
       <r>   20.4030    0.0000 </r>
       <r>   20.6222    0.0000 </r>
       <r>   21.6646    0.0000 </r>
       <r>   22.2012    0.0000 </r>
       <r>   23.0461    0.0000 </r>
      </set>
      <set comment="kpoint 14">
       <r>   -0.5587    1.0000 </r>
       <r>   -0.1138    1.0000 </r>
       <r>    1.5128    1.0000 </r>
       <r>    1.9585    1.0000 </r>
       <r>    3.3809    1.0000 </r>
       <r>    3.8159    1.0000 </r>
       <r>    5.4010    1.0000 </r>
       <r>    5.7997    1.0000 </r>
       <r>    9.5660    1.0000 </r>
       <r>    9.9657    1.0000 </r>
       <r>   11.5252    1.0000 </r>
       <r>   11.9786    1.0000 </r>
       <r>   12.0884    1.0000 </r>
       <r>   12.3777    1.0000 </r>
       <r>   12.7785    1.0000 </r>
       <r>   13.6342    0.0000 </r>
       <r>   14.0537    0.0000 </r>
       <r>   14.2918    0.0000 </r>
       <r>   14.5180    0.0000 </r>
       <r>   14.6972    0.0000 </r>
       <r>   15.8037    0.0000 </r>
       <r>   16.2581    0.0000 </r>
       <r>   16.5197    0.0000 </r>
       <r>   17.0089    0.0000 </r>
       <r>   18.2864    0.0000 </r>
       <r>   19.0683    0.0000 </r>
       <r>   19.5619    0.0000 </r>
       <r>   20.1183    0.0000 </r>
       <r>   21.4326    0.0000 </r>
       <r>   22.0076    0.0000 </r>
       <r>   22.2278    0.0000 </r>
       <r>   22.7795    0.0000 </r>
      </set>
     </set>
     <set comment="spin 2">
      <set comment="kpoint 1">
       <r>   -3.2830    1.0000 </r>
       <r>    2.7545    1.0000 </r>
       <r>    3.1886    1.0000 </r>
       <r>    4.5865    1.0000 </r>
       <r>    5.1955    1.0000 </r>
       <r>    5.1968    1.0000 </r>
       <r>    5.3122    1.0000 </r>
       <r>    5.4062    1.0000 </r>
       <r>    5.8073    1.0000 </r>
       <r>   10.1687    1.0000 </r>
       <r>   10.3057    1.0000 </r>
       <r>   10.3175    1.0000 </r>
       <r>   10.4516    1.0000 </r>
       <r>   10.5542    1.0000 </r>
       <r>   10.8597    1.0000 </r>
       <r>   11.1240    1.0000 </r>
       <r>   11.7218    1.0000 </r>
       <r>   12.2152    1.0000 </r>
       <r>   12.5005    1.0000 </r>
       <r>   12.8187    1.0000 </r>
       <r>   12.9665    1.0000 </r>
       <r>   19.4573    0.0000 </r>
       <r>   20.1693    0.0000 </r>
       <r>   20.6701    0.0000 </r>
       <r>   21.1956    0.0000 </r>
       <r>   21.3904    0.0000 </r>
       <r>   21.9824    0.0000 </r>
       <r>   22.7198    0.0000 </r>
       <r>   23.7449    0.0000 </r>
       <r>   25.6250    0.0000 </r>
       <r>   25.7850    0.0000 </r>
       <r>   25.7953    0.0000 </r>
      </set>
      <set comment="kpoint 2">
       <r>   -2.7490    1.0000 </r>
       <r>    1.4534    1.0000 </r>
       <r>    3.2716    1.0000 </r>
       <r>    3.6904    1.0000 </r>
       <r>    3.6993    1.0000 </r>
       <r>    3.8939    1.0000 </r>
       <r>    7.2977    1.0000 </r>
       <r>    7.4784    1.0000 </r>
       <r>    7.6432    1.0000 </r>
       <r>    8.2149    1.0000 </r>
       <r>    9.3029    1.0000 </r>
       <r>    9.4272    1.0000 </r>
       <r>    9.7530    1.0000 </r>
       <r>   10.1676    1.0000 </r>
       <r>   10.3127    1.0000 </r>
       <r>   13.0598    1.0000 </r>
       <r>   13.2992    0.8566 </r>
       <r>   14.2084    0.0000 </r>
       <r>   14.5739    0.0000 </r>
       <r>   15.2352    0.0000 </r>
       <r>   15.7666    0.0000 </r>
       <r>   16.1008    0.0000 </r>
       <r>   16.9924    0.0000 </r>
       <r>   20.8113    0.0000 </r>
       <r>   20.9432    0.0000 </r>
       <r>   21.1349    0.0000 </r>
       <r>   21.2027    0.0000 </r>
       <r>   21.8160    0.0000 </r>
       <r>   21.9656    0.0000 </r>
       <r>   22.4307    0.0000 </r>
       <r>   22.5607    0.0000 </r>
       <r>   23.3560    0.0000 </r>
      </set>
      <set comment="kpoint 3">
       <r>   -1.1578    1.0000 </r>
       <r>   -1.1578    1.0000 </r>
       <r>    3.2719    1.0000 </r>
       <r>    3.2719    1.0000 </r>
       <r>    4.8061    1.0000 </r>
       <r>    4.8061    1.0000 </r>
       <r>    5.2240    1.0000 </r>
       <r>    5.2240    1.0000 </r>
       <r>    8.8661    1.0000 </r>
       <r>    8.8661    1.0000 </r>
       <r>    9.7050    1.0000 </r>
       <r>    9.7050    1.0000 </r>
       <r>   10.9367    1.0000 </r>
       <r>   10.9367    1.0000 </r>
       <r>   11.7852    1.0000 </r>
       <r>   11.7852    1.0000 </r>
       <r>   14.8498    0.0000 </r>
       <r>   14.8498    0.0000 </r>
       <r>   16.5604    0.0000 </r>
       <r>   16.5604    0.0000 </r>
       <r>   16.8122    0.0000 </r>
       <r>   16.8122    0.0000 </r>
       <r>   17.9157    0.0000 </r>
       <r>   17.9157    0.0000 </r>
       <r>   18.6539    0.0000 </r>
       <r>   18.6539    0.0000 </r>
       <r>   20.6190    0.0000 </r>
       <r>   20.6190    0.0000 </r>
       <r>   21.4993    0.0000 </r>
       <r>   21.4993    0.0000 </r>
       <r>   22.2220    0.0000 </r>
       <r>   22.2220    0.0000 </r>
      </set>
      <set comment="kpoint 4">
       <r>   -1.7129    1.0000 </r>
       <r>    0.2981    1.0000 </r>
       <r>    0.7417    1.0000 </r>
       <r>    4.2787    1.0000 </r>
       <r>    4.6806    1.0000 </r>
       <r>    6.1011    1.0000 </r>
       <r>    6.7231    1.0000 </r>
       <r>    6.7506    1.0000 </r>
       <r>    6.8488    1.0000 </r>
       <r>    6.8697    1.0000 </r>
       <r>    7.3131    1.0000 </r>
       <r>   10.3210    1.0000 </r>
       <r>   12.1842    1.0000 </r>
       <r>   12.4407    1.0000 </r>
       <r>   12.6960    1.0000 </r>
       <r>   12.9905    1.0000 </r>
       <r>   13.0047    1.0000 </r>
       <r>   13.4004    0.0362 </r>
       <r>   16.5183    0.0000 </r>
       <r>   16.7916    0.0000 </r>
       <r>   17.1840    0.0000 </r>
       <r>   17.4106    0.0000 </r>
       <r>   17.5750    0.0000 </r>
       <r>   17.9171    0.0000 </r>
       <r>   19.1185    0.0000 </r>
       <r>   19.1925    0.0000 </r>
       <r>   19.2002    0.0000 </r>
       <r>   19.2619    0.0000 </r>
       <r>   22.4360    0.0000 </r>
       <r>   22.9097    0.0000 </r>
       <r>   22.9434    0.0000 </r>
       <r>   23.2653    0.0000 </r>
      </set>
      <set comment="kpoint 5">
       <r>   -1.6402    1.0000 </r>
       <r>    0.3650    1.0000 </r>
       <r>    0.6283    1.0000 </r>
       <r>    4.3313    1.0000 </r>
       <r>    4.7737    1.0000 </r>
       <r>    6.2745    1.0000 </r>
       <r>    6.4054    1.0000 </r>
       <r>    6.5530    1.0000 </r>
       <r>    6.6689    1.0000 </r>
       <r>    6.9185    1.0000 </r>
       <r>    6.9226    1.0000 </r>
       <r>   11.0566    1.0000 </r>
       <r>   11.8199    1.0000 </r>
       <r>   12.7005    1.0000 </r>
       <r>   12.7617    1.0000 </r>
       <r>   12.9760    1.0000 </r>
       <r>   13.3086    0.7880 </r>
       <r>   13.3643    0.2185 </r>
       <r>   16.1904    0.0000 </r>
       <r>   16.8608    0.0000 </r>
       <r>   16.9416    0.0000 </r>
       <r>   17.2075    0.0000 </r>
       <r>   18.0010    0.0000 </r>
       <r>   18.4506    0.0000 </r>
       <r>   19.2042    0.0000 </r>
       <r>   19.4568    0.0000 </r>
       <r>   19.8230    0.0000 </r>
       <r>   20.1371    0.0000 </r>
       <r>   21.8504    0.0000 </r>
       <r>   22.4323    0.0000 </r>
       <r>   22.4719    0.0000 </r>
       <r>   22.6810    0.0000 </r>
      </set>
      <set comment="kpoint 6">
       <r>   -2.7230    1.0000 </r>
       <r>    1.7473    1.0000 </r>
       <r>    3.1793    1.0000 </r>
       <r>    3.3567    1.0000 </r>
       <r>    3.6859    1.0000 </r>
       <r>    3.7291    1.0000 </r>
       <r>    7.5562    1.0000 </r>
       <r>    7.6475    1.0000 </r>
       <r>    7.8878    1.0000 </r>
       <r>    7.9903    1.0000 </r>
       <r>    8.8530    1.0000 </r>
       <r>    8.9597    1.0000 </r>
       <r>    9.6314    1.0000 </r>
       <r>   10.3431    1.0000 </r>
       <r>   10.7533    1.0000 </r>
       <r>   12.9426    1.0000 </r>
       <r>   13.1060    1.0000 </r>
       <r>   14.2369    0.0000 </r>
       <r>   14.7899    0.0000 </r>
       <r>   15.7780    0.0000 </r>
       <r>   16.3826    0.0000 </r>
       <r>   16.4359    0.0000 </r>
       <r>   17.0760    0.0000 </r>
       <r>   19.9643    0.0000 </r>
       <r>   21.0431    0.0000 </r>
       <r>   21.1299    0.0000 </r>
       <r>   21.3602    0.0000 </r>
       <r>   21.6157    0.0000 </r>
       <r>   22.1594    0.0000 </r>
       <r>   22.4623    0.0000 </r>
       <r>   23.5513    0.0000 </r>
       <r>   23.7983    0.0000 </r>
      </set>
      <set comment="kpoint 7">
       <r>   -1.2536    1.0000 </r>
       <r>   -0.8073    1.0000 </r>
       <r>    2.6931    1.0000 </r>
       <r>    3.1457    1.0000 </r>
       <r>    4.6318    1.0000 </r>
       <r>    5.2500    1.0000 </r>
       <r>    5.2804    1.0000 </r>
       <r>    5.4404    1.0000 </r>
       <r>    8.2893    1.0000 </r>
       <r>    8.3443    1.0000 </r>
       <r>    9.1656    1.0000 </r>
       <r>   10.0039    1.0000 </r>
       <r>   10.9043    1.0000 </r>
       <r>   11.4341    1.0000 </r>
       <r>   11.9178    1.0000 </r>
       <r>   11.9305    1.0000 </r>
       <r>   15.4358    0.0000 </r>
       <r>   15.9833    0.0000 </r>
       <r>   16.4686    0.0000 </r>
       <r>   16.5269    0.0000 </r>
       <r>   16.8405    0.0000 </r>
       <r>   16.9465    0.0000 </r>
       <r>   17.2127    0.0000 </r>
       <r>   18.2263    0.0000 </r>
       <r>   19.5880    0.0000 </r>
       <r>   19.7122    0.0000 </r>
       <r>   21.0794    0.0000 </r>
       <r>   21.1788    0.0000 </r>
       <r>   21.2590    0.0000 </r>
       <r>   21.5624    0.0000 </r>
       <r>   21.8899    0.0000 </r>
       <r>   22.1286    0.0000 </r>
      </set>
      <set comment="kpoint 8">
       <r>   -2.5773    1.0000 </r>
       <r>   -0.4785    1.0000 </r>
       <r>    5.2363    1.0000 </r>
       <r>    5.8580    1.0000 </r>
       <r>    5.8614    1.0000 </r>
       <r>    5.9705    1.0000 </r>
       <r>    6.0347    1.0000 </r>
       <r>    6.4854    1.0000 </r>
       <r>    7.2642    1.0000 </r>
       <r>    7.5960    1.0000 </r>
       <r>    7.9262    1.0000 </r>
       <r>    7.9347    1.0000 </r>
       <r>    7.9379    1.0000 </r>
       <r>    8.0433    1.0000 </r>
       <r>    8.5591    1.0000 </r>
       <r>   13.2825    0.9380 </r>
       <r>   15.3961    0.0000 </r>
       <r>   15.8427    0.0000 </r>
       <r>   15.9033    0.0000 </r>
       <r>   15.9728    0.0000 </r>
       <r>   16.3630    0.0000 </r>
       <r>   16.4528    0.0000 </r>
       <r>   20.7491    0.0000 </r>
       <r>   20.8576    0.0000 </r>
       <r>   20.8642    0.0000 </r>
       <r>   20.9727    0.0000 </r>
       <r>   21.2802    0.0000 </r>
       <r>   21.3714    0.0000 </r>
       <r>   21.8513    0.0000 </r>
       <r>   22.4864    0.0000 </r>
       <r>   22.5988    0.0000 </r>
       <r>   23.1649    0.0000 </r>
      </set>
      <set comment="kpoint 9">
       <r>   -2.0455    1.0000 </r>
       <r>    0.0465    1.0000 </r>
       <r>    2.1419    1.0000 </r>
       <r>    4.1735    1.0000 </r>
       <r>    4.3587    1.0000 </r>
       <r>    4.5742    1.0000 </r>
       <r>    6.3429    1.0000 </r>
       <r>    6.5686    1.0000 </r>
       <r>    8.1773    1.0000 </r>
       <r>    8.2107    1.0000 </r>
       <r>    8.8704    1.0000 </r>
       <r>    9.9621    1.0000 </r>
       <r>   10.2975    1.0000 </r>
       <r>   10.7693    1.0000 </r>
       <r>   11.8643    1.0000 </r>
       <r>   12.5683    1.0000 </r>
       <r>   13.9405    0.0000 </r>
       <r>   14.4857    0.0000 </r>
       <r>   14.8800    0.0000 </r>
       <r>   16.2103    0.0000 </r>
       <r>   16.9631    0.0000 </r>
       <r>   17.8110    0.0000 </r>
       <r>   18.1330    0.0000 </r>
       <r>   18.3638    0.0000 </r>
       <r>   18.7965    0.0000 </r>
       <r>   19.3196    0.0000 </r>
       <r>   19.9709    0.0000 </r>
       <r>   20.3412    0.0000 </r>
       <r>   20.7579    0.0000 </r>
       <r>   22.3061    0.0000 </r>
       <r>   22.6746    0.0000 </r>
       <r>   23.3041    0.0000 </r>
      </set>
      <set comment="kpoint 10">
       <r>   -0.4612    1.0000 </r>
       <r>   -0.4612    1.0000 </r>
       <r>    1.6132    1.0000 </r>
       <r>    1.6132    1.0000 </r>
       <r>    3.9526    1.0000 </r>
       <r>    3.9526    1.0000 </r>
       <r>    5.9623    1.0000 </r>
       <r>    5.9623    1.0000 </r>
       <r>    9.5865    1.0000 </r>
       <r>    9.5865    1.0000 </r>
       <r>   11.3865    1.0000 </r>
       <r>   11.3865    1.0000 </r>
       <r>   12.2891    1.0000 </r>
       <r>   12.2891    1.0000 </r>
       <r>   13.3743    0.1445 </r>
       <r>   13.3743    0.1445 </r>
       <r>   14.1656    0.0000 </r>
       <r>   14.1656    0.0000 </r>
       <r>   14.5589    0.0000 </r>
       <r>   14.5589    0.0000 </r>
       <r>   15.5057    0.0000 </r>
       <r>   15.5057    0.0000 </r>
       <r>   16.3867    0.0000 </r>
       <r>   16.3867    0.0000 </r>
       <r>   18.1307    0.0000 </r>
       <r>   18.1307    0.0000 </r>
       <r>   19.8722    0.0000 </r>
       <r>   19.8722    0.0000 </r>
       <r>   21.6967    0.0000 </r>
       <r>   21.6967    0.0000 </r>
       <r>   22.2908    0.0000 </r>
       <r>   22.2908    0.0000 </r>
      </set>
      <set comment="kpoint 11">
       <r>   -1.0137    1.0000 </r>
       <r>    0.9598    1.0000 </r>
       <r>    1.0972    1.0000 </r>
       <r>    1.4318    1.0000 </r>
       <r>    3.0434    1.0000 </r>
       <r>    3.4832    1.0000 </r>
       <r>    7.4407    1.0000 </r>
       <r>    7.9669    1.0000 </r>
       <r>    9.0287    1.0000 </r>
       <r>    9.3669    1.0000 </r>
       <r>    9.7848    1.0000 </r>
       <r>   10.9228    1.0000 </r>
       <r>   11.3271    1.0000 </r>
       <r>   11.3368    1.0000 </r>
       <r>   12.4757    1.0000 </r>
       <r>   13.1828    1.0000 </r>
       <r>   13.7661    0.0000 </r>
       <r>   14.6576    0.0000 </r>
       <r>   15.4855    0.0000 </r>
       <r>   15.7145    0.0000 </r>
       <r>   16.8794    0.0000 </r>
       <r>   16.9849    0.0000 </r>
       <r>   17.5313    0.0000 </r>
       <r>   17.6965    0.0000 </r>
       <r>   18.2033    0.0000 </r>
       <r>   18.6711    0.0000 </r>
       <r>   19.3341    0.0000 </r>
       <r>   19.7632    0.0000 </r>
       <r>   20.1544    0.0000 </r>
       <r>   20.2840    0.0000 </r>
       <r>   21.1314    0.0000 </r>
       <r>   21.7934    0.0000 </r>
      </set>
      <set comment="kpoint 12">
       <r>   -0.9411    1.0000 </r>
       <r>    1.0364    1.0000 </r>
       <r>    1.1584    1.0000 </r>
       <r>    1.3182    1.0000 </r>
       <r>    3.1095    1.0000 </r>
       <r>    3.3719    1.0000 </r>
       <r>    7.0600    1.0000 </r>
       <r>    7.5571    1.0000 </r>
       <r>    8.9387    1.0000 </r>
       <r>    9.1953    1.0000 </r>
       <r>    9.5079    1.0000 </r>
       <r>   11.1933    1.0000 </r>
       <r>   11.4795    1.0000 </r>
       <r>   11.8243    1.0000 </r>
       <r>   13.0782    1.0000 </r>
       <r>   13.7693    0.0000 </r>
       <r>   14.4293    0.0000 </r>
       <r>   14.7846    0.0000 </r>
       <r>   15.2719    0.0000 </r>
       <r>   16.0559    0.0000 </r>
       <r>   16.4422    0.0000 </r>
       <r>   17.0402    0.0000 </r>
       <r>   17.3374    0.0000 </r>
       <r>   17.4213    0.0000 </r>
       <r>   17.8441    0.0000 </r>
       <r>   18.5648    0.0000 </r>
       <r>   18.9304    0.0000 </r>
       <r>   19.4507    0.0000 </r>
       <r>   19.9016    0.0000 </r>
       <r>   20.5633    0.0000 </r>
       <r>   21.2633    0.0000 </r>
       <r>   22.0748    0.0000 </r>
      </set>
      <set comment="kpoint 13">
       <r>   -2.0195    1.0000 </r>
       <r>    0.0726    1.0000 </r>
       <r>    2.4328    1.0000 </r>
       <r>    3.9115    1.0000 </r>
       <r>    4.3559    1.0000 </r>
       <r>    4.4766    1.0000 </r>
       <r>    5.9219    1.0000 </r>
       <r>    6.3176    1.0000 </r>
       <r>    8.1973    1.0000 </r>
       <r>    8.3017    1.0000 </r>
       <r>    8.6536    1.0000 </r>
       <r>   10.1836    1.0000 </r>
       <r>   10.4532    1.0000 </r>
       <r>   10.9804    1.0000 </r>
       <r>   12.5780    1.0000 </r>
       <r>   12.7869    1.0000 </r>
       <r>   13.3962    0.0467 </r>
       <r>   14.5116    0.0000 </r>
       <r>   14.8417    0.0000 </r>
       <r>   16.5864    0.0000 </r>
       <r>   16.9900    0.0000 </r>
       <r>   17.9667    0.0000 </r>
       <r>   18.3746    0.0000 </r>
       <r>   18.4720    0.0000 </r>
       <r>   19.2114    0.0000 </r>
       <r>   19.2343    0.0000 </r>
       <r>   20.2303    0.0000 </r>
       <r>   20.4058    0.0000 </r>
       <r>   20.6248    0.0000 </r>
       <r>   21.6674    0.0000 </r>
       <r>   22.2037    0.0000 </r>
       <r>   23.0486    0.0000 </r>
      </set>
      <set comment="kpoint 14">
       <r>   -0.5562    1.0000 </r>
       <r>   -0.1111    1.0000 </r>
       <r>    1.5152    1.0000 </r>
       <r>    1.9612    1.0000 </r>
       <r>    3.3835    1.0000 </r>
       <r>    3.8183    1.0000 </r>
       <r>    5.4037    1.0000 </r>
       <r>    5.8020    1.0000 </r>
       <r>    9.5687    1.0000 </r>
       <r>    9.9683    1.0000 </r>
       <r>   11.5274    1.0000 </r>
       <r>   11.9805    1.0000 </r>
       <r>   12.0912    1.0000 </r>
       <r>   12.3807    1.0000 </r>
       <r>   12.7814    1.0000 </r>
       <r>   13.6367    0.0000 </r>
       <r>   14.0568    0.0000 </r>
       <r>   14.2939    0.0000 </r>
       <r>   14.5214    0.0000 </r>
       <r>   14.6995    0.0000 </r>
       <r>   15.8063    0.0000 </r>
       <r>   16.2599    0.0000 </r>
       <r>   16.5223    0.0000 </r>
       <r>   17.0114    0.0000 </r>
       <r>   18.2888    0.0000 </r>
       <r>   19.0706    0.0000 </r>
       <r>   19.5644    0.0000 </r>
       <r>   20.1208    0.0000 </r>
       <r>   21.4348    0.0000 </r>
       <r>   22.0100    0.0000 </r>
       <r>   22.2300    0.0000 </r>
       <r>   22.7826    0.0000 </r>
      </set>
     </set>
    </set>
   </array>
  </eigenvalues>
  <separator name="orbital magnetization" >
   <v name="MAGDIPOLOUT">      0.00000000      0.00000000      0.00000000</v>
  </separator>
  <dos>
   <i name="efermi">     13.33686032 </i>
   <total>
    <array>
     <dimension dim="1">gridpoints</dimension>
     <dimension dim="2">spin</dimension>
     <field>energy</field>
     <field>total</field>
     <field>integrated</field>
     <set>
      <set comment="spin 1">
       <r>    -4.7396     0.0000     0.0000 </r>
       <r>    -4.6330     0.0000     0.0000 </r>
       <r>    -4.5264     0.0000     0.0000 </r>
       <r>    -4.4198     0.0000     0.0000 </r>
       <r>    -4.3131     0.0000     0.0000 </r>
       <r>    -4.2065     0.0000     0.0000 </r>
       <r>    -4.0999     0.0000     0.0000 </r>
       <r>    -3.9932     0.0000     0.0000 </r>
       <r>    -3.8866     0.0000     0.0000 </r>
       <r>    -3.7800     0.0000     0.0000 </r>
       <r>    -3.6733     0.0000     0.0000 </r>
       <r>    -3.5667     0.0000     0.0000 </r>
       <r>    -3.4601     0.0000     0.0000 </r>
       <r>    -3.3535     0.0054     0.0006 </r>
       <r>    -3.2468     0.1634     0.0180 </r>
       <r>    -3.1402     0.0266     0.0208 </r>
       <r>    -3.0336     0.0000     0.0208 </r>
       <r>    -2.9269     0.0000     0.0208 </r>
       <r>    -2.8203     0.0218     0.0232 </r>
       <r>    -2.7137     0.8960     0.1187 </r>
       <r>    -2.6070     0.3407     0.1550 </r>
       <r>    -2.5004     0.2998     0.1870 </r>
       <r>    -2.3938     0.0048     0.1875 </r>
       <r>    -2.2872     0.0000     0.1875 </r>
       <r>    -2.1805     0.0001     0.1875 </r>
       <r>    -2.0739     0.4188     0.2322 </r>
       <r>    -1.9673     1.8609     0.4306 </r>
       <r>    -1.8606     0.0647     0.4375 </r>
       <r>    -1.7540     0.0545     0.4433 </r>
       <r>    -1.6474     0.6757     0.5154 </r>
       <r>    -1.5407     0.4406     0.5623 </r>
       <r>    -1.4341     0.0015     0.5625 </r>
       <r>    -1.3275     0.0042     0.5630 </r>
       <r>    -1.2209     0.1940     0.5836 </r>
       <r>    -1.1142     0.7060     0.6589 </r>
       <r>    -1.0076     0.5943     0.7223 </r>
       <r>    -0.9010     1.6460     0.8978 </r>
       <r>    -0.7943     0.3080     0.9306 </r>
       <r>    -0.6877     0.0643     0.9375 </r>
       <r>    -0.5811     0.1045     0.9486 </r>
       <r>    -0.4744     1.1026     1.0662 </r>
       <r>    -0.3678     1.1320     1.1869 </r>
       <r>    -0.2612     0.0055     1.1875 </r>
       <r>    -0.1546     0.0485     1.1927 </r>
       <r>    -0.0479     0.3376     1.2287 </r>
       <r>     0.0587     1.3322     1.3707 </r>
       <r>     0.1653     1.0137     1.4788 </r>
       <r>     0.2720     0.1054     1.4901 </r>
       <r>     0.3786     0.8130     1.5768 </r>
       <r>     0.4852     0.2569     1.6041 </r>
       <r>     0.5919     0.1322     1.6182 </r>
       <r>     0.6985     0.6832     1.6911 </r>
       <r>     0.8051     0.3450     1.7279 </r>
       <r>     0.9117     0.0896     1.7374 </r>
       <r>     1.0184     1.1996     1.8653 </r>
       <r>     1.1250     1.9881     2.0773 </r>
       <r>     1.2316     1.4125     2.2280 </r>
       <r>     1.3383     1.1709     2.3528 </r>
       <r>     1.4449     1.2776     2.4890 </r>
       <r>     1.5515     1.0981     2.6061 </r>
       <r>     1.6582     1.4073     2.7562 </r>
       <r>     1.7648     0.4164     2.8006 </r>
       <r>     1.8714     0.1143     2.8128 </r>
       <r>     1.9780     0.2748     2.8421 </r>
       <r>     2.0847     0.2083     2.8643 </r>
       <r>     2.1913     1.3570     3.0090 </r>
       <r>     2.2979     0.1111     3.0208 </r>
       <r>     2.4046     0.1827     3.0403 </r>
       <r>     2.5112     0.5902     3.1032 </r>
       <r>     2.6178     0.0125     3.1046 </r>
       <r>     2.7245     0.2005     3.1260 </r>
       <r>     2.8311     0.1837     3.1456 </r>
       <r>     2.9377     0.0039     3.1460 </r>
       <r>     3.0443     0.4795     3.1971 </r>
       <r>     3.1510     1.9336     3.4033 </r>
       <r>     3.2576     1.2830     3.5401 </r>
       <r>     3.3642     2.0401     3.7576 </r>
       <r>     3.4709     1.5970     3.9279 </r>
       <r>     3.5775     0.4797     3.9791 </r>
       <r>     3.6841     0.8892     4.0739 </r>
       <r>     3.7908     1.5334     4.2374 </r>
       <r>     3.8974     1.1511     4.3601 </r>
       <r>     4.0040     2.1859     4.5932 </r>
       <r>     4.1106     0.1712     4.6115 </r>
       <r>     4.2173     1.3644     4.7570 </r>
       <r>     4.3239     1.2692     4.8923 </r>
       <r>     4.4305     2.4224     5.1506 </r>
       <r>     4.5372     0.9844     5.2556 </r>
       <r>     4.6438     1.6640     5.4330 </r>
       <r>     4.7504     0.6980     5.5074 </r>
       <r>     4.8571     1.2402     5.6397 </r>
       <r>     4.9637     0.0578     5.6458 </r>
       <r>     5.0703     0.0001     5.6458 </r>
       <r>     5.1769     0.2322     5.6706 </r>
       <r>     5.2836     1.5884     5.8400 </r>
       <r>     5.3902     0.5618     5.8999 </r>
       <r>     5.4968     0.5370     5.9571 </r>
       <r>     5.6035     0.0112     5.9583 </r>
       <r>     5.7101     0.0030     5.9587 </r>
       <r>     5.8167     0.4875     6.0106 </r>
       <r>     5.9234     1.5560     6.1766 </r>
       <r>     6.0300     2.1995     6.4111 </r>
       <r>     6.1366     0.5812     6.4731 </r>
       <r>     6.2432     0.2382     6.4985 </r>
       <r>     6.3499     2.2422     6.7376 </r>
       <r>     6.4565     1.5282     6.9005 </r>
       <r>     6.5631     1.5730     7.0682 </r>
       <r>     6.6698     1.5726     7.2359 </r>
       <r>     6.7764     1.0158     7.3442 </r>
       <r>     6.8830     0.9428     7.4448 </r>
       <r>     6.9897     1.5045     7.6052 </r>
       <r>     7.0963     1.3415     7.7482 </r>
       <r>     7.2029     0.2350     7.7733 </r>
       <r>     7.3095     1.0371     7.8839 </r>
       <r>     7.4162     0.7433     7.9631 </r>
       <r>     7.5228     1.6118     8.1350 </r>
       <r>     7.6294     2.3859     8.3894 </r>
       <r>     7.7361     0.8370     8.4787 </r>
       <r>     7.8427     0.0569     8.4847 </r>
       <r>     7.9493     1.4664     8.6411 </r>
       <r>     8.0560     1.4647     8.7973 </r>
       <r>     8.1626     1.0739     8.9118 </r>
       <r>     8.2692     3.8506     9.3224 </r>
       <r>     8.3758     1.0326     9.4325 </r>
       <r>     8.4825     0.0543     9.4383 </r>
       <r>     8.5891     0.3460     9.4752 </r>
       <r>     8.6957     0.7376     9.5538 </r>
       <r>     8.8024     0.1965     9.5748 </r>
       <r>     8.9090     2.7114     9.8639 </r>
       <r>     9.0156     2.1230    10.0903 </r>
       <r>     9.1223     0.5793    10.1520 </r>
       <r>     9.2289     1.4725    10.3091 </r>
       <r>     9.3355     1.0477    10.4208 </r>
       <r>     9.4422     1.3275    10.5623 </r>
       <r>     9.5488     1.9647    10.7718 </r>
       <r>     9.6554     2.0909    10.9948 </r>
       <r>     9.7620     1.5111    11.1559 </r>
       <r>     9.8687     0.8856    11.2503 </r>
       <r>     9.9753     1.3247    11.3916 </r>
       <r>    10.0819     0.8297    11.4800 </r>
       <r>    10.1886     1.1804    11.6059 </r>
       <r>    10.2952     1.8908    11.8075 </r>
       <r>    10.4018     2.2512    12.0476 </r>
       <r>    10.5085     0.8947    12.1430 </r>
       <r>    10.6151     0.2154    12.1659 </r>
       <r>    10.7217     0.2492    12.1925 </r>
       <r>    10.8283     1.6906    12.3728 </r>
       <r>    10.9350     1.3773    12.5197 </r>
       <r>    11.0416     1.6346    12.6939 </r>
       <r>    11.1482     0.8571    12.7853 </r>
       <r>    11.2549     1.4025    12.9349 </r>
       <r>    11.3615     1.7119    13.1174 </r>
       <r>    11.4681     2.2394    13.3562 </r>
       <r>    11.5748     1.3127    13.4962 </r>
       <r>    11.6814     0.0657    13.5032 </r>
       <r>    11.7880     1.0532    13.6155 </r>
       <r>    11.8946     3.5772    13.9969 </r>
       <r>    12.0013     0.9016    14.0931 </r>
       <r>    12.1079     0.3886    14.1345 </r>
       <r>    12.2145     0.5609    14.1943 </r>
       <r>    12.3212     1.4590    14.3499 </r>
       <r>    12.4278     0.8228    14.4376 </r>
       <r>    12.5344     1.5014    14.5977 </r>
       <r>    12.6411     2.0340    14.8146 </r>
       <r>    12.7477     1.5564    14.9806 </r>
       <r>    12.8543     1.6939    15.1612 </r>
       <r>    12.9609     0.8426    15.2510 </r>
       <r>    13.0676     2.5112    15.5188 </r>
       <r>    13.1742     1.9073    15.7222 </r>
       <r>    13.2808     1.1268    15.8423 </r>
       <r>    13.3875     3.4243    16.2075 </r>
       <r>    13.4941     1.3726    16.3538 </r>
       <r>    13.6007     0.0705    16.3613 </r>
       <r>    13.7074     0.4339    16.4076 </r>
       <r>    13.8140     2.0347    16.6246 </r>
       <r>    13.9206     0.6851    16.6976 </r>
       <r>    14.0272     1.1572    16.8210 </r>
       <r>    14.1339     0.6472    16.8900 </r>
       <r>    14.2405     2.1090    17.1149 </r>
       <r>    14.3471     0.6765    17.1870 </r>
       <r>    14.4538     1.5972    17.3574 </r>
       <r>    14.5604     3.7266    17.7547 </r>
       <r>    14.6670     1.8900    17.9562 </r>
       <r>    14.7737     1.4165    18.1073 </r>
       <r>    14.8803     3.2998    18.4591 </r>
       <r>    14.9869     0.9677    18.5623 </r>
       <r>    15.0935     0.0016    18.5625 </r>
       <r>    15.2002     0.1778    18.5815 </r>
       <r>    15.3068     1.9262    18.7868 </r>
       <r>    15.4134     0.6022    18.8511 </r>
       <r>    15.5201     1.9624    19.0603 </r>
       <r>    15.6267     0.6127    19.1256 </r>
       <r>    15.7333     0.7723    19.2080 </r>
       <r>    15.8400     1.6915    19.3884 </r>
       <r>    15.9466     0.7497    19.4683 </r>
       <r>    16.0532     1.3441    19.6116 </r>
       <r>    16.1598     1.7655    19.7999 </r>
       <r>    16.2665     2.2215    20.0367 </r>
       <r>    16.3731     1.3161    20.1771 </r>
       <r>    16.4797     3.5672    20.5575 </r>
       <r>    16.5864     2.2243    20.7946 </r>
       <r>    16.6930     0.5593    20.8543 </r>
       <r>    16.7996     0.6235    20.9208 </r>
       <r>    16.9063     2.3668    21.1731 </r>
       <r>    17.0129     4.7710    21.6819 </r>
       <r>    17.1195     2.3658    21.9341 </r>
       <r>    17.2261     1.0856    22.0499 </r>
       <r>    17.3328     1.0684    22.1638 </r>
       <r>    17.4394     2.2488    22.4036 </r>
       <r>    17.5460     1.1375    22.5249 </r>
       <r>    17.6527     0.6383    22.5930 </r>
       <r>    17.7593     0.8108    22.6794 </r>
       <r>    17.8659     2.6494    22.9619 </r>
       <r>    17.9726     2.1160    23.1875 </r>
       <r>    18.0792     1.2149    23.3171 </r>
       <r>    18.1858     3.0069    23.6377 </r>
       <r>    18.2924     1.1205    23.7572 </r>
       <r>    18.3991     2.1562    23.9871 </r>
       <r>    18.5057     1.8050    24.1796 </r>
       <r>    18.6123     1.6628    24.3569 </r>
       <r>    18.7190     1.4816    24.5149 </r>
       <r>    18.8256     1.3311    24.6568 </r>
       <r>    18.9322     1.1460    24.7790 </r>
       <r>    19.0389     0.7888    24.8631 </r>
       <r>    19.1455     0.7627    24.9444 </r>
       <r>    19.2521     2.8809    25.2516 </r>
       <r>    19.3587     2.5693    25.5256 </r>
       <r>    19.4654     2.0335    25.7424 </r>
       <r>    19.5720     1.1602    25.8661 </r>
       <r>    19.6786     0.3244    25.9007 </r>
       <r>    19.7853     0.8772    25.9943 </r>
       <r>    19.8919     2.6621    26.2781 </r>
       <r>    19.9985     2.8782    26.5850 </r>
       <r>    20.1052     0.7518    26.6652 </r>
       <r>    20.2118     1.9778    26.8761 </r>
       <r>    20.3184     1.6866    27.0559 </r>
       <r>    20.4250     1.7961    27.2474 </r>
       <r>    20.5317     0.5532    27.3064 </r>
       <r>    20.6383     2.3483    27.5568 </r>
       <r>    20.7449     1.4558    27.7120 </r>
       <r>    20.8516     2.1594    27.9423 </r>
       <r>    20.9582     1.2250    28.0729 </r>
       <r>    21.0648     0.9178    28.1708 </r>
       <r>    21.1715     2.1886    28.4042 </r>
       <r>    21.2781     2.5074    28.6715 </r>
       <r>    21.3847     1.4241    28.8234 </r>
       <r>    21.4913     1.0153    28.9316 </r>
       <r>    21.5980     0.7714    29.0139 </r>
       <r>    21.7046     1.9054    29.2171 </r>
       <r>    21.8112     1.8036    29.4094 </r>
       <r>    21.9179     1.8449    29.6061 </r>
       <r>    22.0245     1.3132    29.7461 </r>
       <r>    22.1311     1.7496    29.9327 </r>
       <r>    22.2378     2.0453    30.1508 </r>
       <r>    22.3444     3.2045    30.4925 </r>
       <r>    22.4510     2.1434    30.7210 </r>
       <r>    22.5576     2.0694    30.9417 </r>
       <r>    22.6643     1.6581    31.1185 </r>
       <r>    22.7709     1.7622    31.3064 </r>
       <r>    22.8775     0.3434    31.3430 </r>
       <r>    22.9842     0.6740    31.4149 </r>
       <r>    23.0908     0.7283    31.4925 </r>
       <r>    23.1974     0.5415    31.5503 </r>
       <r>    23.3041     1.1950    31.6777 </r>
       <r>    23.4107     1.4170    31.8288 </r>
       <r>    23.5173     0.1189    31.8415 </r>
       <r>    23.6239     0.3086    31.8744 </r>
       <r>    23.7306     0.0900    31.8840 </r>
       <r>    23.8372     0.4557    31.9325 </r>
       <r>    23.9438     0.0464    31.9375 </r>
       <r>    24.0505     0.0000    31.9375 </r>
       <r>    24.1571     0.0000    31.9375 </r>
       <r>    24.2637     0.0000    31.9375 </r>
       <r>    24.3704     0.0000    31.9375 </r>
       <r>    24.4770     0.0000    31.9375 </r>
       <r>    24.5836     0.0000    31.9375 </r>
       <r>    24.6902     0.0000    31.9375 </r>
       <r>    24.7969     0.0000    31.9375 </r>
       <r>    24.9035     0.0000    31.9375 </r>
       <r>    25.0101     0.0000    31.9375 </r>
       <r>    25.1168     0.0000    31.9375 </r>
       <r>    25.2234     0.0000    31.9375 </r>
       <r>    25.3300     0.0000    31.9375 </r>
       <r>    25.4367     0.0000    31.9375 </r>
       <r>    25.5433     0.0026    31.9378 </r>
       <r>    25.6499     0.1515    31.9539 </r>
       <r>    25.7565     0.1167    31.9664 </r>
       <r>    25.8632     0.3087    31.9993 </r>
       <r>    25.9698     0.0067    32.0000 </r>
       <r>    26.0764     0.0000    32.0000 </r>
       <r>    26.1831     0.0000    32.0000 </r>
       <r>    26.2897     0.0000    32.0000 </r>
       <r>    26.3963     0.0000    32.0000 </r>
       <r>    26.5030     0.0000    32.0000 </r>
       <r>    26.6096     0.0000    32.0000 </r>
       <r>    26.7162     0.0000    32.0000 </r>
       <r>    26.8228     0.0000    32.0000 </r>
       <r>    26.9295     0.0000    32.0000 </r>
       <r>    27.0361     0.0000    32.0000 </r>
       <r>    27.1427     0.0000    32.0000 </r>
       <r>    27.2494     0.0000    32.0000 </r>
      </set>
      <set comment="spin 2">
       <r>    -4.7396     0.0000     0.0000 </r>
       <r>    -4.6330     0.0000     0.0000 </r>
       <r>    -4.5264     0.0000     0.0000 </r>
       <r>    -4.4198     0.0000     0.0000 </r>
       <r>    -4.3131     0.0000     0.0000 </r>
       <r>    -4.2065     0.0000     0.0000 </r>
       <r>    -4.0999     0.0000     0.0000 </r>
       <r>    -3.9932     0.0000     0.0000 </r>
       <r>    -3.8866     0.0000     0.0000 </r>
       <r>    -3.7800     0.0000     0.0000 </r>
       <r>    -3.6733     0.0000     0.0000 </r>
       <r>    -3.5667     0.0000     0.0000 </r>
       <r>    -3.4601     0.0000     0.0000 </r>
       <r>    -3.3535     0.0045     0.0005 </r>
       <r>    -3.2468     0.1610     0.0176 </r>
       <r>    -3.1402     0.0299     0.0208 </r>
       <r>    -3.0336     0.0000     0.0208 </r>
       <r>    -2.9269     0.0000     0.0208 </r>
       <r>    -2.8203     0.0183     0.0228 </r>
       <r>    -2.7137     0.8755     0.1161 </r>
       <r>    -2.6070     0.3565     0.1541 </r>
       <r>    -2.5004     0.3070     0.1869 </r>
       <r>    -2.3938     0.0058     0.1875 </r>
       <r>    -2.2872     0.0000     0.1875 </r>
       <r>    -2.1805     0.0001     0.1875 </r>
       <r>    -2.0739     0.3779     0.2278 </r>
       <r>    -1.9673     1.8911     0.4295 </r>
       <r>    -1.8606     0.0755     0.4375 </r>
       <r>    -1.7540     0.0483     0.4427 </r>
       <r>    -1.6474     0.6578     0.5128 </r>
       <r>    -1.5407     0.4643     0.5623 </r>
       <r>    -1.4341     0.0019     0.5625 </r>
       <r>    -1.3275     0.0036     0.5629 </r>
       <r>    -1.2209     0.1864     0.5828 </r>
       <r>    -1.1142     0.7038     0.6578 </r>
       <r>    -1.0076     0.5745     0.7191 </r>
       <r>    -0.9010     1.6534     0.8954 </r>
       <r>    -0.7943     0.3254     0.9301 </r>
       <r>    -0.6877     0.0698     0.9375 </r>
       <r>    -0.5811     0.0955     0.9477 </r>
       <r>    -0.4744     1.0573     1.0604 </r>
       <r>    -0.3678     1.1850     1.1868 </r>
       <r>    -0.2612     0.0068     1.1875 </r>
       <r>    -0.1546     0.0427     1.1921 </r>
       <r>    -0.0479     0.3398     1.2283 </r>
       <r>     0.0587     1.2732     1.3640 </r>
       <r>     0.1653     1.0757     1.4787 </r>
       <r>     0.2720     0.0970     1.4891 </r>
       <r>     0.3786     0.8008     1.5745 </r>
       <r>     0.4852     0.2782     1.6041 </r>
       <r>     0.5919     0.1184     1.6168 </r>
       <r>     0.6985     0.6883     1.6902 </r>
       <r>     0.8051     0.3517     1.7277 </r>
       <r>     0.9117     0.0827     1.7365 </r>
       <r>     1.0184     1.1615     1.8603 </r>
       <r>     1.1250     1.9880     2.0723 </r>
       <r>     1.2316     1.4524     2.2272 </r>
       <r>     1.3383     1.1394     2.3487 </r>
       <r>     1.4449     1.2713     2.4842 </r>
       <r>     1.5515     1.1263     2.6043 </r>
       <r>     1.6582     1.4047     2.7541 </r>
       <r>     1.7648     0.4261     2.7995 </r>
       <r>     1.8714     0.1236     2.8127 </r>
       <r>     1.9780     0.2650     2.8410 </r>
       <r>     2.0847     0.2058     2.8629 </r>
       <r>     2.1913     1.3537     3.0073 </r>
       <r>     2.2979     0.1271     3.0208 </r>
       <r>     2.4046     0.1658     3.0385 </r>
       <r>     2.5112     0.6053     3.1031 </r>
       <r>     2.6178     0.0137     3.1045 </r>
       <r>     2.7245     0.1941     3.1252 </r>
       <r>     2.8311     0.1904     3.1455 </r>
       <r>     2.9377     0.0041     3.1460 </r>
       <r>     3.0443     0.4496     3.1939 </r>
       <r>     3.1510     1.9248     3.3991 </r>
       <r>     3.2576     1.2814     3.5358 </r>
       <r>     3.3642     2.0148     3.7506 </r>
       <r>     3.4709     1.6393     3.9254 </r>
       <r>     3.5775     0.5024     3.9790 </r>
       <r>     3.6841     0.8261     4.0671 </r>
       <r>     3.7908     1.5852     4.2361 </r>
       <r>     3.8974     1.1042     4.3538 </r>
       <r>     4.0040     2.2293     4.5916 </r>
       <r>     4.1106     0.1772     4.6104 </r>
       <r>     4.2173     1.3521     4.7546 </r>
       <r>     4.3239     1.2266     4.8854 </r>
       <r>     4.4305     2.4692     5.1487 </r>
       <r>     4.5372     0.9678     5.2519 </r>
       <r>     4.6438     1.6786     5.4309 </r>
       <r>     4.7504     0.6880     5.5043 </r>
       <r>     4.8571     1.2621     5.6388 </r>
       <r>     4.9637     0.0656     5.6458 </r>
       <r>     5.0703     0.0001     5.6458 </r>
       <r>     5.1769     0.2085     5.6681 </r>
       <r>     5.2836     1.5880     5.8374 </r>
       <r>     5.3902     0.5659     5.8977 </r>
       <r>     5.4968     0.5548     5.9569 </r>
       <r>     5.6035     0.0134     5.9583 </r>
       <r>     5.7101     0.0024     5.9586 </r>
       <r>     5.8167     0.4635     6.0080 </r>
       <r>     5.9234     1.5240     6.1705 </r>
       <r>     6.0300     2.2337     6.4087 </r>
       <r>     6.1366     0.5984     6.4725 </r>
       <r>     6.2432     0.2274     6.4968 </r>
       <r>     6.3499     2.1939     6.7307 </r>
       <r>     6.4565     1.5742     6.8986 </r>
       <r>     6.5631     1.5249     7.0612 </r>
       <r>     6.6698     1.6094     7.2328 </r>
       <r>     6.7764     1.0303     7.3426 </r>
       <r>     6.8830     0.9128     7.4400 </r>
       <r>     6.9897     1.5364     7.6038 </r>
       <r>     7.0963     1.3285     7.7455 </r>
       <r>     7.2029     0.2574     7.7729 </r>
       <r>     7.3095     1.0052     7.8801 </r>
       <r>     7.4162     0.7587     7.9610 </r>
       <r>     7.5228     1.5876     8.1303 </r>
       <r>     7.6294     2.3850     8.3846 </r>
       <r>     7.7361     0.8812     8.4786 </r>
       <r>     7.8427     0.0522     8.4841 </r>
       <r>     7.9493     1.4136     8.6348 </r>
       <r>     8.0560     1.5083     8.7957 </r>
       <r>     8.1626     1.0049     8.9028 </r>
       <r>     8.2692     3.8922     9.3179 </r>
       <r>     8.3758     1.0700     9.4320 </r>
       <r>     8.4825     0.0578     9.4381 </r>
       <r>     8.5891     0.3341     9.4738 </r>
       <r>     8.6957     0.7409     9.5528 </r>
       <r>     8.8024     0.1915     9.5732 </r>
       <r>     8.9090     2.6532     9.8561 </r>
       <r>     9.0156     2.1682    10.0873 </r>
       <r>     9.1223     0.5976    10.1510 </r>
       <r>     9.2289     1.4491    10.3055 </r>
       <r>     9.3355     1.0534    10.4178 </r>
       <r>     9.4422     1.3252    10.5592 </r>
       <r>     9.5488     1.9358    10.7656 </r>
       <r>     9.6554     2.1239    10.9920 </r>
       <r>     9.7620     1.4869    11.1506 </r>
       <r>     9.8687     0.9323    11.2500 </r>
       <r>     9.9753     1.2752    11.3860 </r>
       <r>    10.0819     0.8794    11.4798 </r>
       <r>    10.1886     1.1358    11.6009 </r>
       <r>    10.2952     1.8515    11.7983 </r>
       <r>    10.4018     2.3224    12.0459 </r>
       <r>    10.5085     0.8993    12.1418 </r>
       <r>    10.6151     0.2248    12.1658 </r>
       <r>    10.7217     0.2201    12.1893 </r>
       <r>    10.8283     1.7046    12.3710 </r>
       <r>    10.9350     1.3365    12.5135 </r>
       <r>    11.0416     1.6665    12.6912 </r>
       <r>    11.1482     0.8530    12.7822 </r>
       <r>    11.2549     1.4170    12.9333 </r>
       <r>    11.3615     1.6627    13.1106 </r>
       <r>    11.4681     2.2519    13.3507 </r>
       <r>    11.5748     1.3596    13.4957 </r>
       <r>    11.6814     0.0668    13.5028 </r>
       <r>    11.7880     0.9852    13.6078 </r>
       <r>    11.8946     3.6000    13.9917 </r>
       <r>    12.0013     0.9419    14.0921 </r>
       <r>    12.1079     0.3855    14.1332 </r>
       <r>    12.2145     0.5560    14.1925 </r>
       <r>    12.3212     1.4449    14.3466 </r>
       <r>    12.4278     0.8334    14.4355 </r>
       <r>    12.5344     1.4683    14.5920 </r>
       <r>    12.6411     2.0675    14.8125 </r>
       <r>    12.7477     1.5192    14.9745 </r>
       <r>    12.8543     1.7414    15.1602 </r>
       <r>    12.9609     0.8042    15.2459 </r>
       <r>    13.0676     2.4912    15.5116 </r>
       <r>    13.1742     1.9502    15.7195 </r>
       <r>    13.2808     1.0860    15.8353 </r>
       <r>    13.3875     3.3768    16.1954 </r>
       <r>    13.4941     1.4848    16.3537 </r>
       <r>    13.6007     0.0649    16.3606 </r>
       <r>    13.7074     0.4216    16.4056 </r>
       <r>    13.8140     2.0239    16.6214 </r>
       <r>    13.9206     0.6778    16.6937 </r>
       <r>    14.0272     1.1823    16.8197 </r>
       <r>    14.1339     0.6204    16.8859 </r>
       <r>    14.2405     2.1153    17.1114 </r>
       <r>    14.3471     0.7030    17.1864 </r>
       <r>    14.4538     1.5312    17.3497 </r>
       <r>    14.5604     3.7164    17.7459 </r>
       <r>    14.6670     1.9441    17.9532 </r>
       <r>    14.7737     1.3802    18.1004 </r>
       <r>    14.8803     3.2901    18.4512 </r>
       <r>    14.9869     1.0416    18.5623 </r>
       <r>    15.0935     0.0020    18.5625 </r>
       <r>    15.2002     0.1588    18.5794 </r>
       <r>    15.3068     1.9185    18.7840 </r>
       <r>    15.4134     0.6109    18.8491 </r>
       <r>    15.5201     1.9217    19.0541 </r>
       <r>    15.6267     0.6699    19.1255 </r>
       <r>    15.7333     0.7283    19.2031 </r>
       <r>    15.8400     1.7123    19.3857 </r>
       <r>    15.9466     0.7574    19.4665 </r>
       <r>    16.0532     1.3036    19.6055 </r>
       <r>    16.1598     1.7833    19.7957 </r>
       <r>    16.2665     2.2381    20.0343 </r>
       <r>    16.3731     1.2659    20.1693 </r>
       <r>    16.4797     3.5732    20.5503 </r>
       <r>    16.5864     2.2446    20.7896 </r>
       <r>    16.6930     0.6054    20.8542 </r>
       <r>    16.7996     0.5789    20.9159 </r>
       <r>    16.9063     2.3466    21.1661 </r>
       <r>    17.0129     4.7127    21.6687 </r>
       <r>    17.1195     2.4776    21.9328 </r>
       <r>    17.2261     1.0645    22.0464 </r>
       <r>    17.3328     1.0619    22.1596 </r>
       <r>    17.4394     2.2462    22.3991 </r>
       <r>    17.5460     1.1525    22.5220 </r>
       <r>    17.6527     0.6536    22.5917 </r>
       <r>    17.7593     0.7984    22.6768 </r>
       <r>    17.8659     2.6092    22.9550 </r>
       <r>    17.9726     2.1353    23.1827 </r>
       <r>    18.0792     1.2243    23.3133 </r>
       <r>    18.1858     2.9929    23.6324 </r>
       <r>    18.2924     1.1501    23.7550 </r>
       <r>    18.3991     2.1249    23.9816 </r>
       <r>    18.5057     1.8247    24.1762 </r>
       <r>    18.6123     1.6607    24.3533 </r>
       <r>    18.7190     1.4993    24.5131 </r>
       <r>    18.8256     1.3165    24.6535 </r>
       <r>    18.9322     1.1325    24.7743 </r>
       <r>    19.0389     0.8244    24.8622 </r>
       <r>    19.1455     0.7393    24.9410 </r>
       <r>    19.2521     2.8462    25.2445 </r>
       <r>    19.3587     2.5912    25.5208 </r>
       <r>    19.4654     2.0060    25.7347 </r>
       <r>    19.5720     1.2165    25.8644 </r>
       <r>    19.6786     0.3335    25.9000 </r>
       <r>    19.7853     0.8495    25.9906 </r>
       <r>    19.8919     2.6006    26.2679 </r>
       <r>    19.9985     2.9394    26.5813 </r>
       <r>    20.1052     0.7525    26.6615 </r>
       <r>    20.2118     1.9787    26.8725 </r>
       <r>    20.3184     1.6682    27.0504 </r>
       <r>    20.4250     1.8247    27.2450 </r>
       <r>    20.5317     0.5412    27.3027 </r>
       <r>    20.6383     2.3346    27.5516 </r>
       <r>    20.7449     1.4429    27.7055 </r>
       <r>    20.8516     2.1880    27.9388 </r>
       <r>    20.9582     1.2271    28.0696 </r>
       <r>    21.0648     0.9242    28.1682 </r>
       <r>    21.1715     2.1550    28.3980 </r>
       <r>    21.2781     2.5016    28.6647 </r>
       <r>    21.3847     1.4631    28.8207 </r>
       <r>    21.4913     1.0079    28.9282 </r>
       <r>    21.5980     0.7844    29.0118 </r>
       <r>    21.7046     1.8701    29.2112 </r>
       <r>    21.8112     1.8015    29.4033 </r>
       <r>    21.9179     1.8837    29.6042 </r>
       <r>    22.0245     1.2951    29.7423 </r>
       <r>    22.1311     1.7551    29.9294 </r>
       <r>    22.2378     2.0113    30.1439 </r>
       <r>    22.3444     3.2282    30.4881 </r>
       <r>    22.4510     2.1018    30.7122 </r>
       <r>    22.5576     2.1177    30.9380 </r>
       <r>    22.6643     1.6240    31.1112 </r>
       <r>    22.7709     1.8133    31.3046 </r>
       <r>    22.8775     0.3516    31.3421 </r>
       <r>    22.9842     0.6711    31.4136 </r>
       <r>    23.0908     0.7263    31.4911 </r>
       <r>    23.1974     0.4174    31.5356 </r>
       <r>    23.3041     1.2311    31.6668 </r>
       <r>    23.4107     1.5120    31.8280 </r>
       <r>    23.5173     0.1154    31.8404 </r>
       <r>    23.6239     0.3172    31.8742 </r>
       <r>    23.7306     0.0854    31.8833 </r>
       <r>    23.8372     0.4545    31.9317 </r>
       <r>    23.9438     0.0539    31.9375 </r>
       <r>    24.0505     0.0000    31.9375 </r>
       <r>    24.1571     0.0000    31.9375 </r>
       <r>    24.2637     0.0000    31.9375 </r>
       <r>    24.3704     0.0000    31.9375 </r>
       <r>    24.4770     0.0000    31.9375 </r>
       <r>    24.5836     0.0000    31.9375 </r>
       <r>    24.6902     0.0000    31.9375 </r>
       <r>    24.7969     0.0000    31.9375 </r>
       <r>    24.9035     0.0000    31.9375 </r>
       <r>    25.0101     0.0000    31.9375 </r>
       <r>    25.1168     0.0000    31.9375 </r>
       <r>    25.2234     0.0000    31.9375 </r>
       <r>    25.3300     0.0000    31.9375 </r>
       <r>    25.4367     0.0000    31.9375 </r>
       <r>    25.5433     0.0020    31.9377 </r>
       <r>    25.6499     0.1464    31.9533 </r>
       <r>    25.7565     0.1147    31.9656 </r>
       <r>    25.8632     0.3150    31.9991 </r>
       <r>    25.9698     0.0080    32.0000 </r>
       <r>    26.0764     0.0000    32.0000 </r>
       <r>    26.1831     0.0000    32.0000 </r>
       <r>    26.2897     0.0000    32.0000 </r>
       <r>    26.3963     0.0000    32.0000 </r>
       <r>    26.5030     0.0000    32.0000 </r>
       <r>    26.6096     0.0000    32.0000 </r>
       <r>    26.7162     0.0000    32.0000 </r>
       <r>    26.8228     0.0000    32.0000 </r>
       <r>    26.9295     0.0000    32.0000 </r>
       <r>    27.0361     0.0000    32.0000 </r>
       <r>    27.1427     0.0000    32.0000 </r>
       <r>    27.2494     0.0000    32.0000 </r>
      </set>
     </set>
    </array>
   </total>
  </dos>
 </calculation>
 <structure name="finalpos" >
  <crystal>
   <varray name="basis" >
    <v>       2.39805000      -4.01210000       0.00000000 </v>
    <v>       2.39805000       4.01210000       0.00000000 </v>
    <v>       0.00000000       0.00000000       4.77600000 </v>
   </varray>
   <i name="volume">     91.90185910 </i>
   <varray name="rec_basis" >
    <v>       0.20850274      -0.12462302       0.00000000 </v>
    <v>       0.20850274       0.12462302       0.00000000 </v>
    <v>       0.00000000       0.00000000       0.20938023 </v>
   </varray>
  </crystal>
  <varray name="positions" >
   <v>       0.32700000       0.32700000       0.82800000 </v>
   <v>       0.67300000       0.67300000       0.17200000 </v>
   <v>       0.17300000       0.17300000       0.32800000 </v>
   <v>       0.82700000       0.82700000       0.67200000 </v>
   <v>       0.71800000       0.28200000       0.50000000 </v>
   <v>       0.21800000       0.78200000       0.00000000 </v>
   <v>       0.28200000       0.71800000       0.50000000 </v>
   <v>       0.78200000       0.21800000       0.00000000 </v>
  </varray>
 </structure>
</modeling>
