matgen                                  
           1
     2.398050   -4.012100    0.000000
     2.398050    4.012100    0.000000
     0.000000    0.000000    4.776000
   Si
   8
Direct configuration=     1
   0.32700000  0.32700000  0.82800000
   0.67300000  0.67300000  0.17200000
   0.17300000  0.17300000  0.32800000
   0.82700000  0.82700000  0.67200000
   0.71800000  0.28200000  0.50000000
   0.21800000  0.78200000  0.00000000
   0.28200000  0.71800000  0.50000000
   0.78200000  0.21800000  0.00000000
