   8   8   1   0
  0.1531586E+02  0.5261559E-09  0.5261559E-09  0.5360907E-09  0.2000000E-15
  1.000000000000000E-004
  CAR 
 matgen-dos                              
     19.03138508     -5.74198368 2001      9.12633843      1.00000000
     -5.742  0.0000E+00  0.0000E+00
     -5.730  0.0000E+00  0.0000E+00
     -5.717  0.0000E+00  0.0000E+00
     -5.705  0.0000E+00  0.0000E+00
     -5.692  0.0000E+00  0.0000E+00
     -5.680  0.0000E+00  0.0000E+00
     -5.668  0.0000E+00  0.0000E+00
     -5.655  0.0000E+00  0.0000E+00
     -5.643  0.0000E+00  0.0000E+00
     -5.631  0.0000E+00  0.0000E+00
     -5.618  0.0000E+00  0.0000E+00
     -5.606  0.0000E+00  0.0000E+00
     -5.593  0.0000E+00  0.0000E+00
     -5.581  0.0000E+00  0.0000E+00
     -5.569  0.0000E+00  0.0000E+00
     -5.556  0.0000E+00  0.0000E+00
     -5.544  0.0000E+00  0.0000E+00
     -5.531  0.0000E+00  0.0000E+00
     -5.519  0.0000E+00  0.0000E+00
     -5.507  0.0000E+00  0.0000E+00
     -5.494  0.0000E+00  0.0000E+00
     -5.482  0.0000E+00  0.0000E+00
     -5.469  0.0000E+00  0.0000E+00
     -5.457  0.0000E+00  0.0000E+00
     -5.445  0.0000E+00  0.0000E+00
     -5.432  0.0000E+00  0.0000E+00
     -5.420  0.0000E+00  0.0000E+00
     -5.408  0.0000E+00  0.0000E+00
     -5.395  0.0000E+00  0.0000E+00
     -5.383  0.0000E+00  0.0000E+00
     -5.370  0.0000E+00  0.0000E+00
     -5.358  0.0000E+00  0.0000E+00
     -5.346  0.0000E+00  0.0000E+00
     -5.333  0.0000E+00  0.0000E+00
     -5.321  0.0000E+00  0.0000E+00
     -5.308  0.0000E+00  0.0000E+00
     -5.296  0.0000E+00  0.0000E+00
     -5.284  0.0000E+00  0.0000E+00
     -5.271  0.0000E+00  0.0000E+00
     -5.259  0.0000E+00  0.0000E+00
     -5.247  0.0000E+00  0.0000E+00
     -5.234  0.0000E+00  0.0000E+00
     -5.222  0.0000E+00  0.0000E+00
     -5.209  0.0000E+00  0.0000E+00
     -5.197  0.0000E+00  0.0000E+00
     -5.185  0.0000E+00  0.0000E+00
     -5.172  0.0000E+00  0.0000E+00
     -5.160  0.0000E+00  0.0000E+00
     -5.147  0.0000E+00  0.0000E+00
     -5.135  0.0000E+00  0.0000E+00
     -5.123  0.0000E+00  0.0000E+00
     -5.110  0.0000E+00  0.0000E+00
     -5.098  0.0000E+00  0.0000E+00
     -5.085  0.0000E+00  0.0000E+00
     -5.073  0.0000E+00  0.0000E+00
     -5.061  0.0000E+00  0.0000E+00
     -5.048  0.0000E+00  0.0000E+00
     -5.036  0.0000E+00  0.0000E+00
     -5.024  0.0000E+00  0.0000E+00
     -5.011  0.0000E+00  0.0000E+00
     -4.999  0.0000E+00  0.0000E+00
     -4.986  0.0000E+00  0.0000E+00
     -4.974  0.0000E+00  0.0000E+00
     -4.962  0.0000E+00  0.0000E+00
     -4.949  0.0000E+00  0.0000E+00
     -4.937  0.0000E+00  0.0000E+00
     -4.924  0.0000E+00  0.0000E+00
     -4.912  0.0000E+00  0.0000E+00
     -4.900  0.6224E-16  0.7710E-18
     -4.887  0.9613E-15  0.1268E-16
     -4.875  0.1380E-13  0.1837E-15
     -4.863  0.1756E-12  0.2358E-14
     -4.850  0.1977E-11  0.2684E-13
     -4.838  0.1970E-10  0.2709E-12
     -4.825  0.1739E-09  0.2425E-11
     -4.813  0.1359E-08  0.1925E-10
     -4.801  0.9403E-08  0.1357E-09
     -4.788  0.5764E-07  0.8497E-09
     -4.776  0.3130E-06  0.4727E-08
     -4.763  0.1506E-05  0.2338E-07
     -4.751  0.6426E-05  0.1030E-06
     -4.739  0.2433E-04  0.4044E-06
     -4.726  0.8187E-04  0.1418E-05
     -4.714  0.2453E-03  0.4457E-05
     -4.702  0.6568E-03  0.1259E-04
     -4.689  0.1579E-02  0.3216E-04
     -4.677  0.3437E-02  0.7473E-04
     -4.664  0.6838E-02  0.1594E-03
     -4.652  0.1259E-01  0.3154E-03
     -4.640  0.2172E-01  0.5843E-03
     -4.627  0.3542E-01  0.1023E-02
     -4.615  0.5479E-01  0.1702E-02
     -4.602  0.8021E-01  0.2695E-02
     -4.590  0.1106E+00  0.4066E-02
     -4.578  0.1435E+00  0.5844E-02
     -4.565  0.1760E+00  0.8024E-02
     -4.553  0.2064E+00  0.1058E-01
     -4.540  0.2349E+00  0.1349E-01
     -4.528  0.2621E+00  0.1674E-01
     -4.516  0.2868E+00  0.2029E-01
     -4.503  0.3055E+00  0.2407E-01
     -4.491  0.3147E+00  0.2797E-01
     -4.479  0.3146E+00  0.3187E-01
     -4.466  0.3107E+00  0.3572E-01
     -4.454  0.3117E+00  0.3958E-01
     -4.441  0.3246E+00  0.4360E-01
     -4.429  0.3508E+00  0.4795E-01
     -4.417  0.3854E+00  0.5272E-01
     -4.404  0.4196E+00  0.5792E-01
     -4.392  0.4464E+00  0.6345E-01
     -4.379  0.4634E+00  0.6919E-01
     -4.367  0.4728E+00  0.7504E-01
     -4.355  0.4780E+00  0.8096E-01
     -4.342  0.4798E+00  0.8691E-01
     -4.330  0.4761E+00  0.9280E-01
     -4.318  0.4644E+00  0.9856E-01
     -4.305  0.4459E+00  0.1041E+00
     -4.293  0.4275E+00  0.1094E+00
     -4.280  0.4214E+00  0.1146E+00
     -4.268  0.4396E+00  0.1200E+00
     -4.256  0.4882E+00  0.1261E+00
     -4.243  0.5627E+00  0.1331E+00
     -4.231  0.6483E+00  0.1411E+00
     -4.218  0.7248E+00  0.1501E+00
     -4.206  0.7749E+00  0.1597E+00
     -4.194  0.7894E+00  0.1694E+00
     -4.181  0.7685E+00  0.1790E+00
     -4.169  0.7180E+00  0.1879E+00
     -4.156  0.6457E+00  0.1959E+00
     -4.144  0.5607E+00  0.2028E+00
     -4.132  0.4743E+00  0.2087E+00
     -4.119  0.4005E+00  0.2136E+00
     -4.107  0.3531E+00  0.2180E+00
     -4.095  0.3416E+00  0.2222E+00
     -4.082  0.3689E+00  0.2268E+00
     -4.070  0.4312E+00  0.2321E+00
     -4.057  0.5203E+00  0.2386E+00
     -4.045  0.6240E+00  0.2463E+00
     -4.033  0.7278E+00  0.2553E+00
     -4.020  0.8169E+00  0.2655E+00
     -4.008  0.8798E+00  0.2764E+00
     -3.995  0.9117E+00  0.2876E+00
     -3.983  0.9158E+00  0.2990E+00
     -3.971  0.9015E+00  0.3102E+00
     -3.958  0.8820E+00  0.3211E+00
     -3.946  0.8702E+00  0.3319E+00
     -3.934  0.8741E+00  0.3427E+00
     -3.921  0.8930E+00  0.3538E+00
     -3.909  0.9155E+00  0.3651E+00
     -3.896  0.9248E+00  0.3765E+00
     -3.884  0.9064E+00  0.3878E+00
     -3.872  0.8562E+00  0.3984E+00
     -3.859  0.7809E+00  0.4081E+00
     -3.847  0.6948E+00  0.4167E+00
     -3.834  0.6137E+00  0.4243E+00
     -3.822  0.5506E+00  0.4311E+00
     -3.810  0.5139E+00  0.4374E+00
     -3.797  0.5065E+00  0.4437E+00
     -3.785  0.5271E+00  0.4502E+00
     -3.773  0.5735E+00  0.4574E+00
     -3.760  0.6434E+00  0.4653E+00
     -3.748  0.7337E+00  0.4744E+00
     -3.735  0.8355E+00  0.4848E+00
     -3.723  0.9338E+00  0.4963E+00
     -3.711  0.1011E+01  0.5089E+00
     -3.698  0.1056E+01  0.5219E+00
     -3.686  0.1067E+01  0.5351E+00
     -3.673  0.1050E+01  0.5482E+00
     -3.661  0.1015E+01  0.5607E+00
     -3.649  0.9729E+00  0.5728E+00
     -3.636  0.9311E+00  0.5843E+00
     -3.624  0.8976E+00  0.5954E+00
     -3.611  0.8767E+00  0.6063E+00
     -3.599  0.8659E+00  0.6170E+00
     -3.587  0.8567E+00  0.6276E+00
     -3.574  0.8404E+00  0.6380E+00
     -3.562  0.8166E+00  0.6482E+00
     -3.550  0.7966E+00  0.6580E+00
     -3.537  0.7976E+00  0.6679E+00
     -3.525  0.8343E+00  0.6782E+00
     -3.512  0.9092E+00  0.6895E+00
     -3.500  0.1011E+01  0.7020E+00
     -3.488  0.1118E+01  0.7159E+00
     -3.475  0.1208E+01  0.7308E+00
     -3.463  0.1265E+01  0.7465E+00
     -3.450  0.1283E+01  0.7624E+00
     -3.438  0.1265E+01  0.7781E+00
     -3.426  0.1213E+01  0.7931E+00
     -3.413  0.1131E+01  0.8071E+00
     -3.401  0.1024E+01  0.8198E+00
     -3.389  0.9095E+00  0.8310E+00
     -3.376  0.8099E+00  0.8411E+00
     -3.364  0.7491E+00  0.8504E+00
     -3.351  0.7397E+00  0.8595E+00
     -3.339  0.7786E+00  0.8692E+00
     -3.327  0.8498E+00  0.8797E+00
     -3.314  0.9341E+00  0.8913E+00
     -3.302  0.1018E+01  0.9039E+00
     -3.289  0.1097E+01  0.9175E+00
     -3.277  0.1169E+01  0.9319E+00
     -3.265  0.1229E+01  0.9472E+00
     -3.252  0.1263E+01  0.9628E+00
     -3.240  0.1255E+01  0.9784E+00
     -3.227  0.1199E+01  0.9932E+00
     -3.215  0.1107E+01  0.1007E+01
     -3.203  0.1007E+01  0.1019E+01
     -3.190  0.9284E+00  0.1031E+01
     -3.178  0.8869E+00  0.1042E+01
     -3.166  0.8765E+00  0.1053E+01
     -3.153  0.8797E+00  0.1064E+01
     -3.141  0.8827E+00  0.1075E+01
     -3.128  0.8865E+00  0.1086E+01
     -3.116  0.9053E+00  0.1097E+01
     -3.104  0.9544E+00  0.1109E+01
     -3.091  0.1039E+01  0.1121E+01
     -3.079  0.1148E+01  0.1136E+01
     -3.066  0.1261E+01  0.1151E+01
     -3.054  0.1354E+01  0.1168E+01
     -3.042  0.1412E+01  0.1186E+01
     -3.029  0.1432E+01  0.1203E+01
     -3.017  0.1421E+01  0.1221E+01
     -3.005  0.1398E+01  0.1238E+01
     -2.992  0.1377E+01  0.1255E+01
     -2.980  0.1364E+01  0.1272E+01
     -2.967  0.1356E+01  0.1289E+01
     -2.955  0.1348E+01  0.1306E+01
     -2.943  0.1334E+01  0.1322E+01
     -2.930  0.1310E+01  0.1338E+01
     -2.918  0.1273E+01  0.1354E+01
     -2.905  0.1221E+01  0.1369E+01
     -2.893  0.1153E+01  0.1384E+01
     -2.881  0.1073E+01  0.1397E+01
     -2.868  0.9889E+00  0.1409E+01
     -2.856  0.9105E+00  0.1420E+01
     -2.843  0.8508E+00  0.1431E+01
     -2.831  0.8230E+00  0.1441E+01
     -2.819  0.8385E+00  0.1452E+01
     -2.806  0.9024E+00  0.1463E+01
     -2.794  0.1010E+01  0.1475E+01
     -2.782  0.1143E+01  0.1489E+01
     -2.769  0.1276E+01  0.1505E+01
     -2.757  0.1382E+01  0.1522E+01
     -2.744  0.1446E+01  0.1540E+01
     -2.732  0.1469E+01  0.1558E+01
     -2.720  0.1465E+01  0.1577E+01
     -2.707  0.1450E+01  0.1594E+01
     -2.695  0.1433E+01  0.1612E+01
     -2.682  0.1412E+01  0.1630E+01
     -2.670  0.1377E+01  0.1647E+01
     -2.658  0.1327E+01  0.1663E+01
     -2.645  0.1273E+01  0.1679E+01
     -2.633  0.1232E+01  0.1694E+01
     -2.621  0.1218E+01  0.1709E+01
     -2.608  0.1230E+01  0.1725E+01
     -2.596  0.1255E+01  0.1740E+01
     -2.583  0.1272E+01  0.1756E+01
     -2.571  0.1271E+01  0.1772E+01
     -2.559  0.1253E+01  0.1787E+01
     -2.546  0.1227E+01  0.1802E+01
     -2.534  0.1206E+01  0.1817E+01
     -2.521  0.1193E+01  0.1832E+01
     -2.509  0.1186E+01  0.1847E+01
     -2.497  0.1176E+01  0.1861E+01
     -2.484  0.1154E+01  0.1876E+01
     -2.472  0.1124E+01  0.1890E+01
     -2.460  0.1095E+01  0.1903E+01
     -2.447  0.1084E+01  0.1917E+01
     -2.435  0.1101E+01  0.1930E+01
     -2.422  0.1148E+01  0.1944E+01
     -2.410  0.1222E+01  0.1960E+01
     -2.398  0.1319E+01  0.1976E+01
     -2.385  0.1432E+01  0.1994E+01
     -2.373  0.1544E+01  0.2013E+01
     -2.360  0.1628E+01  0.2033E+01
     -2.348  0.1656E+01  0.2053E+01
     -2.336  0.1615E+01  0.2073E+01
     -2.323  0.1520E+01  0.2092E+01
     -2.311  0.1412E+01  0.2110E+01
     -2.298  0.1336E+01  0.2126E+01
     -2.286  0.1317E+01  0.2143E+01
     -2.274  0.1348E+01  0.2159E+01
     -2.261  0.1401E+01  0.2177E+01
     -2.249  0.1449E+01  0.2195E+01
     -2.237  0.1478E+01  0.2213E+01
     -2.224  0.1491E+01  0.2231E+01
     -2.212  0.1497E+01  0.2250E+01
     -2.199  0.1499E+01  0.2268E+01
     -2.187  0.1492E+01  0.2287E+01
     -2.175  0.1470E+01  0.2305E+01
     -2.162  0.1437E+01  0.2323E+01
     -2.150  0.1407E+01  0.2340E+01
     -2.137  0.1393E+01  0.2358E+01
     -2.125  0.1402E+01  0.2375E+01
     -2.113  0.1429E+01  0.2393E+01
     -2.100  0.1466E+01  0.2411E+01
     -2.088  0.1507E+01  0.2430E+01
     -2.076  0.1550E+01  0.2449E+01
     -2.063  0.1594E+01  0.2468E+01
     -2.051  0.1636E+01  0.2489E+01
     -2.038  0.1670E+01  0.2509E+01
     -2.026  0.1692E+01  0.2530E+01
     -2.014  0.1704E+01  0.2551E+01
     -2.001  0.1709E+01  0.2573E+01
     -1.989  0.1708E+01  0.2594E+01
     -1.976  0.1700E+01  0.2615E+01
     -1.964  0.1677E+01  0.2636E+01
     -1.952  0.1631E+01  0.2656E+01
     -1.939  0.1551E+01  0.2675E+01
     -1.927  0.1436E+01  0.2693E+01
     -1.914  0.1294E+01  0.2709E+01
     -1.902  0.1143E+01  0.2723E+01
     -1.890  0.1011E+01  0.2736E+01
     -1.877  0.9261E+00  0.2747E+01
     -1.865  0.9047E+00  0.2758E+01
     -1.853  0.9508E+00  0.2770E+01
     -1.840  0.1056E+01  0.2783E+01
     -1.828  0.1201E+01  0.2798E+01
     -1.815  0.1366E+01  0.2815E+01
     -1.803  0.1521E+01  0.2834E+01
     -1.791  0.1642E+01  0.2854E+01
     -1.778  0.1709E+01  0.2875E+01
     -1.766  0.1721E+01  0.2897E+01
     -1.753  0.1695E+01  0.2918E+01
     -1.741  0.1656E+01  0.2938E+01
     -1.729  0.1626E+01  0.2958E+01
     -1.716  0.1609E+01  0.2978E+01
     -1.704  0.1599E+01  0.2998E+01
     -1.692  0.1588E+01  0.3018E+01
     -1.679  0.1577E+01  0.3037E+01
     -1.667  0.1579E+01  0.3057E+01
     -1.654  0.1604E+01  0.3077E+01
     -1.642  0.1653E+01  0.3097E+01
     -1.630  0.1711E+01  0.3118E+01
     -1.617  0.1759E+01  0.3140E+01
     -1.605  0.1783E+01  0.3162E+01
     -1.592  0.1779E+01  0.3184E+01
     -1.580  0.1750E+01  0.3206E+01
     -1.568  0.1700E+01  0.3227E+01
     -1.555  0.1636E+01  0.3247E+01
     -1.543  0.1568E+01  0.3267E+01
     -1.531  0.1513E+01  0.3285E+01
     -1.518  0.1493E+01  0.3304E+01
     -1.506  0.1520E+01  0.3323E+01
     -1.493  0.1592E+01  0.3342E+01
     -1.481  0.1690E+01  0.3363E+01
     -1.469  0.1785E+01  0.3385E+01
     -1.456  0.1849E+01  0.3408E+01
     -1.444  0.1869E+01  0.3431E+01
     -1.431  0.1850E+01  0.3454E+01
     -1.419  0.1808E+01  0.3477E+01
     -1.407  0.1760E+01  0.3499E+01
     -1.394  0.1715E+01  0.3520E+01
     -1.382  0.1669E+01  0.3540E+01
     -1.369  0.1618E+01  0.3560E+01
     -1.357  0.1570E+01  0.3580E+01
     -1.345  0.1546E+01  0.3599E+01
     -1.332  0.1568E+01  0.3618E+01
     -1.320  0.1639E+01  0.3639E+01
     -1.308  0.1737E+01  0.3660E+01
     -1.295  0.1819E+01  0.3683E+01
     -1.283  0.1847E+01  0.3706E+01
     -1.270  0.1806E+01  0.3728E+01
     -1.258  0.1713E+01  0.3749E+01
     -1.246  0.1602E+01  0.3769E+01
     -1.233  0.1501E+01  0.3788E+01
     -1.221  0.1420E+01  0.3805E+01
     -1.208  0.1357E+01  0.3822E+01
     -1.196  0.1312E+01  0.3838E+01
     -1.184  0.1298E+01  0.3854E+01
     -1.171  0.1332E+01  0.3871E+01
     -1.159  0.1425E+01  0.3889E+01
     -1.147  0.1564E+01  0.3908E+01
     -1.134  0.1720E+01  0.3929E+01
     -1.122  0.1859E+01  0.3952E+01
     -1.109  0.1964E+01  0.3977E+01
     -1.097  0.2039E+01  0.4002E+01
     -1.085  0.2098E+01  0.4028E+01
     -1.072  0.2157E+01  0.4055E+01
     -1.060  0.2217E+01  0.4082E+01
     -1.047  0.2268E+01  0.4110E+01
     -1.035  0.2284E+01  0.4138E+01
     -1.023  0.2245E+01  0.4166E+01
     -1.010  0.2140E+01  0.4193E+01
     -0.998  0.1982E+01  0.4217E+01
     -0.985  0.1798E+01  0.4240E+01
     -0.973  0.1619E+01  0.4260E+01
     -0.961  0.1471E+01  0.4278E+01
     -0.948  0.1367E+01  0.4295E+01
     -0.936  0.1313E+01  0.4311E+01
     -0.924  0.1304E+01  0.4327E+01
     -0.911  0.1330E+01  0.4344E+01
     -0.899  0.1375E+01  0.4361E+01
     -0.886  0.1423E+01  0.4378E+01
     -0.874  0.1465E+01  0.4396E+01
     -0.862  0.1495E+01  0.4415E+01
     -0.849  0.1507E+01  0.4434E+01
     -0.837  0.1504E+01  0.4452E+01
     -0.824  0.1493E+01  0.4471E+01
     -0.812  0.1494E+01  0.4489E+01
     -0.800  0.1528E+01  0.4508E+01
     -0.787  0.1612E+01  0.4528E+01
     -0.775  0.1743E+01  0.4550E+01
     -0.763  0.1899E+01  0.4573E+01
     -0.750  0.2052E+01  0.4599E+01
     -0.738  0.2183E+01  0.4626E+01
     -0.725  0.2286E+01  0.4654E+01
     -0.713  0.2369E+01  0.4683E+01
     -0.701  0.2435E+01  0.4714E+01
     -0.688  0.2476E+01  0.4744E+01
     -0.676  0.2471E+01  0.4775E+01
     -0.663  0.2395E+01  0.4805E+01
     -0.651  0.2239E+01  0.4832E+01
     -0.639  0.2020E+01  0.4857E+01
     -0.626  0.1780E+01  0.4879E+01
     -0.614  0.1576E+01  0.4899E+01
     -0.602  0.1455E+01  0.4917E+01
     -0.589  0.1436E+01  0.4935E+01
     -0.577  0.1506E+01  0.4953E+01
     -0.564  0.1632E+01  0.4974E+01
     -0.552  0.1771E+01  0.4995E+01
     -0.540  0.1893E+01  0.5019E+01
     -0.527  0.1983E+01  0.5043E+01
     -0.515  0.2038E+01  0.5069E+01
     -0.502  0.2055E+01  0.5094E+01
     -0.490  0.2034E+01  0.5119E+01
     -0.478  0.1980E+01  0.5144E+01
     -0.465  0.1913E+01  0.5168E+01
     -0.453  0.1863E+01  0.5191E+01
     -0.440  0.1852E+01  0.5214E+01
     -0.428  0.1882E+01  0.5237E+01
     -0.416  0.1930E+01  0.5261E+01
     -0.403  0.1964E+01  0.5285E+01
     -0.391  0.1968E+01  0.5310E+01
     -0.379  0.1950E+01  0.5334E+01
     -0.366  0.1929E+01  0.5358E+01
     -0.354  0.1926E+01  0.5381E+01
     -0.341  0.1941E+01  0.5405E+01
     -0.329  0.1961E+01  0.5430E+01
     -0.317  0.1970E+01  0.5454E+01
     -0.304  0.1962E+01  0.5478E+01
     -0.292  0.1947E+01  0.5503E+01
     -0.279  0.1947E+01  0.5527E+01
     -0.267  0.1977E+01  0.5551E+01
     -0.255  0.2037E+01  0.5576E+01
     -0.242  0.2103E+01  0.5602E+01
     -0.230  0.2144E+01  0.5629E+01
     -0.218  0.2134E+01  0.5655E+01
     -0.205  0.2071E+01  0.5681E+01
     -0.193  0.1976E+01  0.5706E+01
     -0.180  0.1881E+01  0.5729E+01
     -0.168  0.1822E+01  0.5751E+01
     -0.156  0.1818E+01  0.5774E+01
     -0.143  0.1868E+01  0.5797E+01
     -0.131  0.1956E+01  0.5821E+01
     -0.118  0.2058E+01  0.5847E+01
     -0.106  0.2152E+01  0.5873E+01
     -0.094  0.2225E+01  0.5901E+01
     -0.081  0.2274E+01  0.5929E+01
     -0.069  0.2300E+01  0.5958E+01
     -0.056  0.2304E+01  0.5986E+01
     -0.044  0.2286E+01  0.6015E+01
     -0.032  0.2244E+01  0.6042E+01
     -0.019  0.2175E+01  0.6069E+01
     -0.007  0.2085E+01  0.6095E+01
      0.005  0.1986E+01  0.6120E+01
      0.018  0.1900E+01  0.6143E+01
      0.030  0.1850E+01  0.6166E+01
      0.043  0.1844E+01  0.6189E+01
      0.055  0.1876E+01  0.6212E+01
      0.067  0.1925E+01  0.6236E+01
      0.080  0.1969E+01  0.6260E+01
      0.092  0.2001E+01  0.6285E+01
      0.105  0.2028E+01  0.6310E+01
      0.117  0.2061E+01  0.6336E+01
      0.129  0.2105E+01  0.6362E+01
      0.142  0.2149E+01  0.6389E+01
      0.154  0.2176E+01  0.6416E+01
      0.166  0.2172E+01  0.6442E+01
      0.179  0.2138E+01  0.6469E+01
      0.191  0.2086E+01  0.6495E+01
      0.204  0.2033E+01  0.6520E+01
      0.216  0.1990E+01  0.6545E+01
      0.228  0.1964E+01  0.6569E+01
      0.241  0.1961E+01  0.6593E+01
      0.253  0.1986E+01  0.6618E+01
      0.266  0.2036E+01  0.6643E+01
      0.278  0.2101E+01  0.6669E+01
      0.290  0.2162E+01  0.6696E+01
      0.303  0.2197E+01  0.6723E+01
      0.315  0.2192E+01  0.6750E+01
      0.327  0.2146E+01  0.6777E+01
      0.340  0.2067E+01  0.6802E+01
      0.352  0.1968E+01  0.6827E+01
      0.365  0.1862E+01  0.6850E+01
      0.377  0.1762E+01  0.6872E+01
      0.389  0.1684E+01  0.6893E+01
      0.402  0.1654E+01  0.6913E+01
      0.414  0.1694E+01  0.6934E+01
      0.427  0.1814E+01  0.6956E+01
      0.439  0.2001E+01  0.6981E+01
      0.451  0.2221E+01  0.7009E+01
      0.464  0.2431E+01  0.7039E+01
      0.476  0.2598E+01  0.7071E+01
      0.489  0.2710E+01  0.7105E+01
      0.501  0.2773E+01  0.7139E+01
      0.513  0.2801E+01  0.7174E+01
      0.526  0.2799E+01  0.7208E+01
      0.538  0.2771E+01  0.7243E+01
      0.550  0.2719E+01  0.7276E+01
      0.563  0.2655E+01  0.7309E+01
      0.575  0.2601E+01  0.7341E+01
      0.588  0.2580E+01  0.7373E+01
      0.600  0.2601E+01  0.7406E+01
      0.612  0.2650E+01  0.7438E+01
      0.625  0.2694E+01  0.7472E+01
      0.637  0.2701E+01  0.7505E+01
      0.650  0.2657E+01  0.7538E+01
      0.662  0.2575E+01  0.7570E+01
      0.674  0.2485E+01  0.7601E+01
      0.687  0.2413E+01  0.7631E+01
      0.699  0.2363E+01  0.7660E+01
      0.711  0.2319E+01  0.7689E+01
      0.724  0.2257E+01  0.7717E+01
      0.736  0.2167E+01  0.7744E+01
      0.749  0.2056E+01  0.7769E+01
      0.761  0.1952E+01  0.7793E+01
      0.773  0.1885E+01  0.7817E+01
      0.786  0.1877E+01  0.7840E+01
      0.798  0.1927E+01  0.7864E+01
      0.811  0.2017E+01  0.7889E+01
      0.823  0.2120E+01  0.7915E+01
      0.835  0.2218E+01  0.7942E+01
      0.848  0.2306E+01  0.7971E+01
      0.860  0.2392E+01  0.8001E+01
      0.873  0.2481E+01  0.8031E+01
      0.885  0.2565E+01  0.8063E+01
      0.897  0.2626E+01  0.8096E+01
      0.910  0.2639E+01  0.8128E+01
      0.922  0.2591E+01  0.8160E+01
      0.934  0.2487E+01  0.8191E+01
      0.947  0.2355E+01  0.8220E+01
      0.959  0.2234E+01  0.8248E+01
      0.972  0.2160E+01  0.8275E+01
      0.984  0.2146E+01  0.8301E+01
      0.996  0.2174E+01  0.8328E+01
      1.009  0.2205E+01  0.8356E+01
      1.021  0.2203E+01  0.8383E+01
      1.034  0.2151E+01  0.8409E+01
      1.046  0.2066E+01  0.8435E+01
      1.058  0.1991E+01  0.8460E+01
      1.071  0.1968E+01  0.8484E+01
      1.083  0.2020E+01  0.8509E+01
      1.095  0.2137E+01  0.8536E+01
      1.108  0.2283E+01  0.8564E+01
      1.120  0.2420E+01  0.8594E+01
      1.133  0.2522E+01  0.8625E+01
      1.145  0.2578E+01  0.8657E+01
      1.157  0.2592E+01  0.8689E+01
      1.170  0.2566E+01  0.8721E+01
      1.182  0.2509E+01  0.8752E+01
      1.195  0.2428E+01  0.8782E+01
      1.207  0.2336E+01  0.8811E+01
      1.219  0.2241E+01  0.8839E+01
      1.232  0.2145E+01  0.8865E+01
      1.244  0.2048E+01  0.8891E+01
      1.256  0.1953E+01  0.8915E+01
      1.269  0.1879E+01  0.8938E+01
      1.281  0.1856E+01  0.8961E+01
      1.294  0.1914E+01  0.8985E+01
      1.306  0.2064E+01  0.9010E+01
      1.318  0.2289E+01  0.9039E+01
      1.331  0.2540E+01  0.9070E+01
      1.343  0.2757E+01  0.9104E+01
      1.356  0.2887E+01  0.9140E+01
      1.368  0.2908E+01  0.9176E+01
      1.380  0.2827E+01  0.9211E+01
      1.393  0.2672E+01  0.9244E+01
      1.405  0.2479E+01  0.9275E+01
      1.418  0.2291E+01  0.9303E+01
      1.430  0.2146E+01  0.9330E+01
      1.442  0.2077E+01  0.9356E+01
      1.455  0.2096E+01  0.9382E+01
      1.467  0.2194E+01  0.9409E+01
      1.479  0.2348E+01  0.9438E+01
      1.492  0.2526E+01  0.9469E+01
      1.504  0.2705E+01  0.9503E+01
      1.517  0.2869E+01  0.9538E+01
      1.529  0.3008E+01  0.9576E+01
      1.541  0.3109E+01  0.9614E+01
      1.554  0.3152E+01  0.9653E+01
      1.566  0.3125E+01  0.9692E+01
      1.579  0.3034E+01  0.9729E+01
      1.591  0.2914E+01  0.9765E+01
      1.603  0.2816E+01  0.9800E+01
      1.616  0.2782E+01  0.9835E+01
      1.628  0.2824E+01  0.9870E+01
      1.640  0.2914E+01  0.9906E+01
      1.653  0.2997E+01  0.9943E+01
      1.665  0.3012E+01  0.9980E+01
      1.678  0.2919E+01  0.1002E+02
      1.690  0.2717E+01  0.1005E+02
      1.702  0.2440E+01  0.1008E+02
      1.715  0.2156E+01  0.1011E+02
      1.727  0.1937E+01  0.1013E+02
      1.740  0.1832E+01  0.1015E+02
      1.752  0.1857E+01  0.1018E+02
      1.764  0.1985E+01  0.1020E+02
      1.777  0.2167E+01  0.1023E+02
      1.789  0.2354E+01  0.1026E+02
      1.802  0.2509E+01  0.1029E+02
      1.814  0.2618E+01  0.1032E+02
      1.826  0.2680E+01  0.1035E+02
      1.839  0.2694E+01  0.1039E+02
      1.851  0.2662E+01  0.1042E+02
      1.863  0.2580E+01  0.1045E+02
      1.876  0.2452E+01  0.1048E+02
      1.888  0.2289E+01  0.1051E+02
      1.901  0.2110E+01  0.1054E+02
      1.913  0.1933E+01  0.1056E+02
      1.925  0.1779E+01  0.1058E+02
      1.938  0.1659E+01  0.1060E+02
      1.950  0.1575E+01  0.1062E+02
      1.963  0.1523E+01  0.1064E+02
      1.975  0.1497E+01  0.1066E+02
      1.987  0.1495E+01  0.1068E+02
      2.000  0.1521E+01  0.1070E+02
      2.012  0.1575E+01  0.1072E+02
      2.024  0.1660E+01  0.1074E+02
      2.037  0.1772E+01  0.1076E+02
      2.049  0.1904E+01  0.1078E+02
      2.062  0.2041E+01  0.1081E+02
      2.074  0.2167E+01  0.1084E+02
      2.086  0.2259E+01  0.1086E+02
      2.099  0.2300E+01  0.1089E+02
      2.111  0.2286E+01  0.1092E+02
      2.124  0.2226E+01  0.1095E+02
      2.136  0.2143E+01  0.1097E+02
      2.148  0.2068E+01  0.1100E+02
      2.161  0.2028E+01  0.1103E+02
      2.173  0.2041E+01  0.1105E+02
      2.185  0.2108E+01  0.1108E+02
      2.198  0.2209E+01  0.1110E+02
      2.210  0.2303E+01  0.1113E+02
      2.223  0.2346E+01  0.1116E+02
      2.235  0.2310E+01  0.1119E+02
      2.247  0.2200E+01  0.1122E+02
      2.260  0.2050E+01  0.1124E+02
      2.272  0.1906E+01  0.1127E+02
      2.285  0.1803E+01  0.1129E+02
      2.297  0.1754E+01  0.1131E+02
      2.309  0.1746E+01  0.1133E+02
      2.322  0.1753E+01  0.1135E+02
      2.334  0.1750E+01  0.1138E+02
      2.347  0.1718E+01  0.1140E+02
      2.359  0.1657E+01  0.1142E+02
      2.371  0.1585E+01  0.1144E+02
      2.384  0.1536E+01  0.1146E+02
      2.396  0.1542E+01  0.1148E+02
      2.408  0.1622E+01  0.1150E+02
      2.421  0.1768E+01  0.1152E+02
      2.433  0.1952E+01  0.1154E+02
      2.446  0.2130E+01  0.1157E+02
      2.458  0.2259E+01  0.1160E+02
      2.470  0.2307E+01  0.1162E+02
      2.483  0.2264E+01  0.1165E+02
      2.495  0.2142E+01  0.1168E+02
      2.508  0.1978E+01  0.1170E+02
      2.520  0.1821E+01  0.1173E+02
      2.532  0.1725E+01  0.1175E+02
      2.545  0.1726E+01  0.1177E+02
      2.557  0.1833E+01  0.1179E+02
      2.569  0.2023E+01  0.1182E+02
      2.582  0.2250E+01  0.1184E+02
      2.594  0.2458E+01  0.1187E+02
      2.607  0.2603E+01  0.1191E+02
      2.619  0.2665E+01  0.1194E+02
      2.631  0.2651E+01  0.1197E+02
      2.644  0.2590E+01  0.1200E+02
      2.656  0.2520E+01  0.1204E+02
      2.669  0.2473E+01  0.1207E+02
      2.681  0.2461E+01  0.1210E+02
      2.693  0.2482E+01  0.1213E+02
      2.706  0.2523E+01  0.1216E+02
      2.718  0.2568E+01  0.1219E+02
      2.731  0.2600E+01  0.1222E+02
      2.743  0.2606E+01  0.1226E+02
      2.755  0.2579E+01  0.1229E+02
      2.768  0.2523E+01  0.1232E+02
      2.780  0.2458E+01  0.1235E+02
      2.792  0.2411E+01  0.1238E+02
      2.805  0.2409E+01  0.1241E+02
      2.817  0.2465E+01  0.1244E+02
      2.830  0.2575E+01  0.1247E+02
      2.842  0.2712E+01  0.1250E+02
      2.854  0.2835E+01  0.1254E+02
      2.867  0.2898E+01  0.1258E+02
      2.879  0.2874E+01  0.1261E+02
      2.892  0.2771E+01  0.1265E+02
      2.904  0.2631E+01  0.1268E+02
      2.916  0.2506E+01  0.1271E+02
      2.929  0.2438E+01  0.1274E+02
      2.941  0.2443E+01  0.1277E+02
      2.953  0.2508E+01  0.1280E+02
      2.966  0.2612E+01  0.1283E+02
      2.978  0.2729E+01  0.1287E+02
      2.991  0.2841E+01  0.1290E+02
      3.003  0.2930E+01  0.1294E+02
      3.015  0.2974E+01  0.1298E+02
      3.028  0.2947E+01  0.1301E+02
      3.040  0.2827E+01  0.1305E+02
      3.053  0.2616E+01  0.1308E+02
      3.065  0.2350E+01  0.1311E+02
      3.077  0.2086E+01  0.1313E+02
      3.090  0.1879E+01  0.1316E+02
      3.102  0.1760E+01  0.1318E+02
      3.114  0.1732E+01  0.1320E+02
      3.127  0.1781E+01  0.1322E+02
      3.139  0.1892E+01  0.1325E+02
      3.152  0.2052E+01  0.1327E+02
      3.164  0.2249E+01  0.1330E+02
      3.176  0.2459E+01  0.1333E+02
      3.189  0.2653E+01  0.1336E+02
      3.201  0.2802E+01  0.1340E+02
      3.214  0.2884E+01  0.1343E+02
      3.226  0.2888E+01  0.1347E+02
      3.238  0.2820E+01  0.1350E+02
      3.251  0.2698E+01  0.1354E+02
      3.263  0.2553E+01  0.1357E+02
      3.276  0.2421E+01  0.1360E+02
      3.288  0.2330E+01  0.1363E+02
      3.300  0.2287E+01  0.1366E+02
      3.313  0.2273E+01  0.1368E+02
      3.325  0.2254E+01  0.1371E+02
      3.337  0.2199E+01  0.1374E+02
      3.350  0.2101E+01  0.1377E+02
      3.362  0.1982E+01  0.1379E+02
      3.375  0.1885E+01  0.1381E+02
      3.387  0.1849E+01  0.1384E+02
      3.399  0.1888E+01  0.1386E+02
      3.412  0.1987E+01  0.1388E+02
      3.424  0.2111E+01  0.1391E+02
      3.437  0.2224E+01  0.1394E+02
      3.449  0.2306E+01  0.1397E+02
      3.461  0.2356E+01  0.1400E+02
      3.474  0.2385E+01  0.1403E+02
      3.486  0.2409E+01  0.1406E+02
      3.498  0.2438E+01  0.1409E+02
      3.511  0.2474E+01  0.1412E+02
      3.523  0.2507E+01  0.1415E+02
      3.536  0.2518E+01  0.1418E+02
      3.548  0.2485E+01  0.1421E+02
      3.560  0.2403E+01  0.1424E+02
      3.573  0.2289E+01  0.1427E+02
      3.585  0.2186E+01  0.1429E+02
      3.598  0.2140E+01  0.1432E+02
      3.610  0.2177E+01  0.1435E+02
      3.622  0.2296E+01  0.1438E+02
      3.635  0.2461E+01  0.1441E+02
      3.647  0.2627E+01  0.1444E+02
      3.660  0.2763E+01  0.1447E+02
      3.672  0.2865E+01  0.1451E+02
      3.684  0.2950E+01  0.1455E+02
      3.697  0.3035E+01  0.1458E+02
      3.709  0.3119E+01  0.1462E+02
      3.721  0.3172E+01  0.1466E+02
      3.734  0.3165E+01  0.1470E+02
      3.746  0.3086E+01  0.1474E+02
      3.759  0.2952E+01  0.1478E+02
      3.771  0.2805E+01  0.1481E+02
      3.783  0.2681E+01  0.1484E+02
      3.796  0.2595E+01  0.1488E+02
      3.808  0.2544E+01  0.1491E+02
      3.821  0.2515E+01  0.1494E+02
      3.833  0.2496E+01  0.1497E+02
      3.845  0.2481E+01  0.1500E+02
      3.858  0.2465E+01  0.1503E+02
      3.870  0.2447E+01  0.1506E+02
      3.882  0.2432E+01  0.1509E+02
      3.895  0.2428E+01  0.1512E+02
      3.907  0.2441E+01  0.1515E+02
      3.920  0.2464E+01  0.1518E+02
      3.932  0.2482E+01  0.1521E+02
      3.944  0.2470E+01  0.1524E+02
      3.957  0.2417E+01  0.1527E+02
      3.969  0.2334E+01  0.1530E+02
      3.982  0.2250E+01  0.1533E+02
      3.994  0.2202E+01  0.1536E+02
      4.006  0.2221E+01  0.1538E+02
      4.019  0.2321E+01  0.1541E+02
      4.031  0.2496E+01  0.1544E+02
      4.043  0.2725E+01  0.1548E+02
      4.056  0.2972E+01  0.1551E+02
      4.068  0.3195E+01  0.1555E+02
      4.081  0.3356E+01  0.1560E+02
      4.093  0.3434E+01  0.1564E+02
      4.105  0.3425E+01  0.1568E+02
      4.118  0.3343E+01  0.1572E+02
      4.130  0.3212E+01  0.1576E+02
      4.143  0.3063E+01  0.1580E+02
      4.155  0.2922E+01  0.1584E+02
      4.167  0.2813E+01  0.1587E+02
      4.180  0.2739E+01  0.1590E+02
      4.192  0.2690E+01  0.1594E+02
      4.205  0.2640E+01  0.1597E+02
      4.217  0.2572E+01  0.1600E+02
      4.229  0.2485E+01  0.1603E+02
      4.242  0.2407E+01  0.1606E+02
      4.254  0.2376E+01  0.1609E+02
      4.266  0.2419E+01  0.1612E+02
      4.279  0.2535E+01  0.1615E+02
      4.291  0.2690E+01  0.1619E+02
      4.304  0.2834E+01  0.1622E+02
      4.316  0.2926E+01  0.1626E+02
      4.328  0.2944E+01  0.1629E+02
      4.341  0.2892E+01  0.1633E+02
      4.353  0.2792E+01  0.1637E+02
      4.366  0.2669E+01  0.1640E+02
      4.378  0.2548E+01  0.1643E+02
      4.390  0.2445E+01  0.1646E+02
      4.403  0.2370E+01  0.1649E+02
      4.415  0.2334E+01  0.1652E+02
      4.427  0.2342E+01  0.1655E+02
      4.440  0.2400E+01  0.1658E+02
      4.452  0.2509E+01  0.1661E+02
      4.465  0.2655E+01  0.1664E+02
      4.477  0.2818E+01  0.1668E+02