    8    8    1    1
  0.1531586E+02  0.5261559E-09  0.5261559E-09  0.5360907E-09  0.2000000E-15
  1.000000000000000E-004
  CAR 
 matgen-dos                              
     32    650     30
 
  0.3742002E-15  0.3742002E-15  0.3742002E-15  0.7716049E-03
    1       -4.615921   1.000000
    2        0.295649   1.000000
    3        0.301522   1.000000
    4        1.448513   1.000000
    5        1.917704   1.000000
    6        2.165900   1.000000
    7        2.444441   1.000000
    8        3.636615   1.000000
    9        3.942893   1.000000
   10        6.225852   1.000000
   11        6.363868   1.000000
   12        6.577003   1.000000
   13        6.713129   1.000000
   14        6.912672   1.000000
   15        7.098771   1.000000
   16        7.153582   1.000000
   17        7.190084   1.000000
   18        7.406295   1.000000
   19        7.475737   1.000000
   20       10.461875   0.000000
   21       10.920380   0.000000
   22       13.986873   0.000000
   23       14.233981   0.000000
   24       15.061413   0.000000
   25       15.251081   0.000000
   26       16.617894   0.000000
   27       16.701284   0.000000
   28       16.715780   0.000000
   29       17.349027   0.000000
   30       17.456180   0.000000
 
  0.8333333E-01  0.3611375E-15  0.3742002E-15  0.1543210E-02
    1       -4.563286   1.000000
    2        0.343142   1.000000
    3        0.352115   1.000000
    4        1.268462   1.000000
    5        1.381904   1.000000
    6        1.969921   1.000000
    7        2.718701   1.000000
    8        3.955833   1.000000
    9        4.530433   1.000000
   10        6.040699   1.000000
   11        6.073261   1.000000
   12        6.088146   1.000000
   13        6.330535   1.000000
   14        6.543388   1.000000
   15        6.624192   1.000000
   16        7.530234   1.000000
   17        7.641893   1.000000
   18        7.955088   1.000000
   19        8.274578   1.000000
   20       10.748768   0.000000
   21       11.205282   0.000000
   22       13.568382   0.000000
   23       14.033703   0.000000
   24       15.158913   0.000000
   25       15.174165   0.000000
   26       15.714008   0.000000
   27       16.305286   0.000000
   28       17.147871   0.000000
   29       17.673630   0.000000
   30       17.682152   0.000000
 
  0.1666667E+00  0.3475747E-15  0.3742002E-15  0.1543210E-02
    1       -4.405513   1.000000
    2        0.382522   1.000000
    3        0.503705   1.000000
    4        0.582141   1.000000
    5        0.972475   1.000000
    6        1.570258   1.000000
    7        3.287869   1.000000
    8        4.656436   1.000000
    9        5.127213   1.000000
   10        5.270960   1.000000
   11        5.540698   1.000000
   12        5.956415   1.000000
   13        5.997149   1.000000
   14        6.186773   1.000000
   15        6.360112   1.000000
   16        8.143090   1.000000
   17        8.169725   1.000000
   18        8.903677   1.000000
   19        9.217241   0.005069
   20       11.522648   0.000000
   21       11.968394   0.000000
   22       12.380898   0.000000
   23       14.110714   0.000000
   24       14.174805   0.000000
   25       15.286853   0.000000
   26       15.292874   0.000000
   27       16.345362   0.000000
   28       16.387795   0.000000
   29       16.830775   0.000000
   30       17.904066   0.000000
 
  0.2500000E+00  0.3062563E-15  0.3742002E-15  0.1543210E-02
    1       -4.143039   1.000000
    2       -0.461628   1.000000
    3        0.725324   1.000000
    4        0.755657   1.000000
    5        0.755685   1.000000
    6        1.195951   1.000000
    7        3.853849   1.000000
    8        4.259992   1.000000
    9        4.570273   1.000000
   10        5.520058   1.000000
   11        5.544130   1.000000
   12        5.735658   1.000000
   13        5.889850   1.000000
   14        6.062864   1.000000
   15        6.987133   1.000000
   16        8.817969   1.000000
   17        8.864233   1.000000
   18        9.852254   0.000000
   19       10.156782   0.000000
   20       11.215285   0.000000
   21       12.613504   0.000000
   22       12.717155   0.000000
   23       13.037175   0.000000
   24       14.414388   0.000000
   25       14.992321   0.000000
   26       15.428056   0.000000
   27       15.439099   0.000000
   28       15.835766   0.000000
   29       16.477358   0.000000
   30       17.058260   0.000000
 
  0.3333333E+00  0.3065713E-15  0.3742002E-15  0.1543210E-02
    1       -3.776632   1.000000
    2       -1.306946   1.000000
    3        0.562351   1.000000
    4        0.844964   1.000000
    5        1.107011   1.000000
    6        1.146630   1.000000
    7        3.448521   1.000000
    8        3.458947   1.000000
    9        5.002979   1.000000
   10        5.394696   1.000000
   11        5.564433   1.000000
   12        5.639580   1.000000
   13        5.802221   1.000000
   14        6.510472   1.000000
   15        7.984188   1.000000
   16        9.482479   0.000000
   17        9.661926   0.000000
   18       10.517966   0.000000
   19       10.765194   0.000000
   20       11.038627   0.000000
   21       11.377114   0.000000
   22       13.755934   0.000000
   23       14.011863   0.000000
   24       14.448245   0.000000
   25       14.725629   0.000000
   26       14.822636   0.000000
   27       14.851320   0.000000
   28       15.567416   0.000000
   29       16.028821   0.000000
   30       16.238052   0.000000
 
  0.4166667E+00  0.3068863E-15  0.3742002E-15  0.1543210E-02
    1       -3.307467   1.000000
    2       -2.068902   1.000000
    3        0.492978   1.000000
    4        0.642031   1.000000
    5        1.556038   1.000000
    6        1.579519   1.000000
    7        2.736406   1.000000
    8        2.754019   1.000000
    9        5.326810   1.000000
   10        5.444975   1.000000
   11        5.487131   1.000000
   12        5.610861   1.000000
   13        5.901216   1.000000
   14        7.591247   1.000000
   15        7.771038   1.000000
   16       10.009452   0.000000
   17       10.443420   0.000000
   18       10.497204   0.000000
   19       10.940226   0.000000
   20       11.421181   0.000000
   21       11.745906   0.000000
   22       13.357902   0.000000
   23       13.671507   0.000000
   24       13.800560   0.000000
   25       14.920574   0.000000
   26       15.032538   0.000000
   27       15.112736   0.000000
   28       15.409122   0.000000
   29       15.995153   0.000000
   30       16.003668   0.000000
 
  0.5000000E+00  0.2794457E-15  0.3742002E-15  0.7716049E-03
    1       -2.737310   1.000000
    2       -2.737310   1.000000
    3        0.519868   1.000000
    4        0.519868   1.000000
    5        2.100351   1.000000
    6        2.100353   1.000000
    7        2.121987   1.000000
    8        2.121989   1.000000
    9        5.344570   1.000000
   10        5.344571   1.000000
   11        5.503563   1.000000
   12        5.503565   1.000000
   13        6.863701   1.000000
   14        6.863703   1.000000
   15        8.762533   1.000000
   16        8.762534   1.000000
   17       11.244138   0.000000
   18       11.244140   0.000000
   19       11.442185   0.000000
   20       11.442188   0.000000
   21       12.078224   0.000000
   22       12.078225   0.000000
   23       13.967454   0.000000
   24       13.967456   0.000000
   25       14.060248   0.000000
   26       14.060250   0.000000
   27       15.630268   0.000000
   28       15.630599   0.000000
   29       16.204276   0.000000
   30       16.219857   0.000000
 
  0.3540091E-15  0.8333333E-01  0.3742002E-15  0.1543210E-02
    1       -4.563286   1.000000
    2        0.343142   1.000000
    3        0.352115   1.000000
    4        1.268462   1.000000
    5        1.381904   1.000000
    6        1.969921   1.000000
    7        2.718701   1.000000
    8        3.955833   1.000000
    9        4.530433   1.000000
   10        6.040699   1.000000
   11        6.073261   1.000000
   12        6.088146   1.000000
   13        6.330535   1.000000
   14        6.543388   1.000000
   15        6.624192   1.000000
   16        7.530234   1.000000
   17        7.641893   1.000000
   18        7.955088   1.000000
   19        8.274578   1.000000
   20       10.748768   0.000000
   21       11.205282   0.000000
   22       13.568382   0.000000
   23       14.033703   0.000000
   24       15.158914   0.000000
   25       15.174165   0.000000
   26       15.714008   0.000000
   27       16.305287   0.000000
   28       17.147880   0.000000
   29       17.673195   0.000000
   30       17.676962   0.000000
 
  0.8333333E-01  0.8333333E-01  0.3742002E-15  0.1543210E-02
    1       -4.451535   1.000000
    2        0.428559   1.000000
    3        0.462516   1.000000
    4        0.871198   1.000000
    5        1.107772   1.000000
    6        1.609903   1.000000
    7        2.585777   1.000000
    8        4.979864   1.000000
    9        5.261814   1.000000
   10        5.320139   1.000000
   11        5.626040   1.000000
   12        5.760144   1.000000
   13        6.110149   1.000000
   14        6.377105   1.000000
   15        6.721947   1.000000
   16        7.337252   1.000000
   17        7.570821   1.000000
   18        8.926725   1.000000
   19        9.261312   0.000067
   20       11.375481   0.000000
   21       11.843391   0.000000
   22       13.474919   0.000000
   23       14.124999   0.000000
   24       14.135724   0.000000
   25       14.142775   0.000000
   26       15.284990   0.000000
   27       16.891017   0.000000
   28       17.495435   0.000000
   29       17.538730   0.000000
   30       17.718339   0.000000
 
  0.1666667E+00  0.8333333E-01  0.3742002E-15  0.1543210E-02
    1       -4.234958   1.000000
    2       -0.040904   1.000000
    3        0.551420   1.000000
    4        0.673614   1.000000
    5        0.722218   1.000000
    6        1.587415   1.000000
    7        2.991059   1.000000
    8        4.529395   1.000000
    9        4.793020   1.000000
   10        5.366241   1.000000
   11        5.646567   1.000000
   12        5.889385   1.000000
   13        6.224354   1.000000
   14        6.584154   1.000000
   15        6.621893   1.000000
   16        7.818877   1.000000
   17        7.969371   1.000000
   18        9.939955   0.000000
   19       10.285372   0.000000
   20       12.324755   0.000000
   21       12.454053   0.000000
   22       12.696938   0.000000
   23       12.806934   0.000000
   24       14.007048   0.000000
   25       14.333419   0.000000
   26       15.097295   0.000000
   27       16.255331   0.000000
   28       16.811570   0.000000
   29       17.249953   0.000000
   30       17.278806   0.000000
 
  0.2500000E+00  0.8333333E-01  0.3742002E-15  0.1543210E-02
    1       -3.914222   1.000000
    2       -0.908940   1.000000
    3        0.204533   1.000000
    4        0.984705   1.000000
    5        1.001355   1.000000
    6        1.446929   1.000000
    7        3.500575   1.000000
    8        3.749188   1.000000
    9        4.191624   1.000000
   10        5.048325   1.000000
   11        5.273089   1.000000
   12        6.202516   1.000000
   13        6.434854   1.000000
   14        6.839456   1.000000
   15        7.725612   1.000000
   16        8.561694   1.000000
   17        8.666359   1.000000
   18       10.936788   0.000000
   19       11.220633   0.000000
   20       11.333194   0.000000
   21       11.344673   0.000000
   22       13.508532   0.000000
   23       13.979018   0.000000
   24       14.155301   0.000000
   25       14.639482   0.000000
   26       14.670133   0.000000
   27       15.425507   0.000000
   28       15.812081   0.000000
   29       16.072849   0.000000
   30       16.260668   0.000000
 
  0.3333333E+00  0.8333333E-01  0.3742002E-15  0.1543210E-02
    1       -3.490392   1.000000
    2       -1.709533   1.000000
    3       -0.061711   1.000000
    4        1.354933   1.000000
    5        1.394599   1.000000
    6        1.406442   1.000000
    7        3.019795   1.000000
    8        3.051520   1.000000
    9        4.727422   1.000000
   10        4.838823   1.000000
   11        4.997551   1.000000
   12        6.126916   1.000000
   13        6.316746   1.000000
   14        7.862218   1.000000
   15        8.444362   1.000000
   16        9.388297   0.000000
   17        9.595529   0.000000
   18        9.890524   0.000000
   19       10.784551   0.000000
   20       11.820921   0.000000
   21       12.179342   0.000000
   22       13.779378   0.000000
   23       14.363830   0.000000
   24       14.513949   0.000000
   25       14.747346   0.000000
   26       14.853937   0.000000
   27       14.959858   0.000000
   28       14.982131   0.000000
   29       15.065023   0.000000
   30       15.503892   0.000000
 
  0.4166667E+00  0.8333333E-01  0.3742002E-15  0.1543210E-02
    1       -2.965096   1.000000
    2       -2.420172   1.000000
    3       -0.231219   1.000000
    4        1.344708   1.000000
    5        1.901471   1.000000
    6        1.911043   1.000000
    7        2.362385   1.000000
    8        2.408094   1.000000
    9        4.648145   1.000000
   10        4.821773   1.000000
   11        5.701134   1.000000
   12        6.112787   1.000000
   13        6.283182   1.000000
   14        7.999888   1.000000
   15        8.589527   1.000000
   16        8.976267   0.999989
   17       10.219197   0.000000
   18       10.507199   0.000000
   19       11.568475   0.000000
   20       12.165486   0.000000
   21       12.312499   0.000000
   22       12.730312   0.000000
   23       13.744378   0.000000
   24       13.809007   0.000000
   25       14.302189   0.000000
   26       14.421189   0.000000
   27       14.791172   0.000000
   28       15.471646   0.000000
   29       15.882603   0.000000
   30       16.300496   0.000000
 
  0.5000000E+00  0.8333333E-01  0.3742002E-15  0.1543210E-02
    1       -3.034098   1.000000
    2       -2.340854   1.000000
    3       -0.301634   1.000000
    4        1.416871   1.000000
    5        1.788630   1.000000
    6        1.841147   1.000000
    7        2.502623   1.000000
    8        2.508925   1.000000
    9        4.587404   1.000000
   10        4.746237   1.000000
   11        6.172561   1.000000
   12        6.333203   1.000000
   13        6.702604   1.000000
   14        7.108348   1.000000
   15        7.368758   1.000000
   16       10.141498   0.000000
   17       10.792962   0.000000
   18       11.089379   0.000000
   19       11.151468   0.000000
   20       11.639787   0.000000
   21       11.897410   0.000000
   22       12.903711   0.000000
   23       13.019375   0.000000
   24       13.086440   0.000000
   25       14.966880   0.000000
   26       15.103673   0.000000
   27       15.118056   0.000000
   28       15.338195   0.000000
   29       16.095581   0.000000
   30       16.220853   0.000000
 
 -0.4166667E+00  0.8333333E-01  0.3742002E-15  0.1543210E-02
    1       -3.547907   1.000000
    2       -1.621932   1.000000
    3       -0.272114   1.000000
    4        1.305389   1.000000
    5        1.307374   1.000000
    6        1.637425   1.000000
    7        3.190512   1.000000
    8        3.194021   1.000000
    9        4.619285   1.000000
   10        4.770921   1.000000
   11        6.175606   1.000000
   12        6.237359   1.000000
   13        6.316958   1.000000
   14        6.457980   1.000000
   15        7.573052   1.000000
   16        9.831144   0.000000
   17       10.524765   0.000000
   18       10.781549   0.000000
   19       10.835415   0.000000
   20       11.084693   0.000000
   21       11.473644   0.000000
   22       13.221678   0.000000
   23       13.242297   0.000000
   24       14.284474   0.000000
   25       14.643784   0.000000
   26       14.841488   0.000000
   27       15.220461   0.000000
   28       15.532233   0.000000
   29       15.833364   0.000000
   30       15.912809   0.000000
 
 -0.3333333E+00  0.8333333E-01  0.3742002E-15  0.1543210E-02
    1       -3.959527   1.000000
    2       -0.816905   1.000000
    3       -0.142867   1.000000
    4        0.916912   1.000000
    5        0.932082   1.000000
    6        1.883445   1.000000
    7        3.922245   1.000000
    8        3.969203   1.000000
    9        4.742556   1.000000
   10        4.895370   1.000000
   11        5.206856   1.000000
   12        5.353412   1.000000
   13        6.494191   1.000000
   14        6.636695   1.000000
   15        7.415854   1.000000
   16        9.440984   0.000000
   17        9.732042   0.000000
   18        9.999708   0.000000
   19       10.022208   0.000000
   20       10.575785   0.000000
   21       12.703972   0.000000
   22       13.068330   0.000000
   23       13.341094   0.000000
   24       14.403373   0.000000
   25       14.456119   0.000000
   26       14.634071   0.000000
   27       15.269858   0.000000
   28       15.308589   0.000000
   29       16.336619   0.000000
   30       16.793712   0.000000
 
 -0.2500000E+00  0.8333333E-01  0.3742002E-15  0.1543210E-02
    1       -4.267599   1.000000
    2        0.048692   1.000000
    3        0.084642   1.000000
    4        0.625918   1.000000
    5        0.649166   1.000000
    6        2.214839   1.000000
    7        4.276628   1.000000
    8        4.291462   1.000000
    9        4.816372   1.000000
   10        4.954734   1.000000
   11        5.044156   1.000000
   12        5.118532   1.000000
   13        6.292700   1.000000
   14        6.702747   1.000000
   15        6.822811   1.000000
   16        8.877800   1.000000
   17        9.124056   0.525733
   18        9.148930   0.261413
   19        9.264771   0.000045
   20       11.174375   0.000000
   21       11.909912   0.000000
   22       12.310153   0.000000
   23       14.019711   0.000000
   24       14.287462   0.000000
   25       15.046682   0.000000
   26       15.173781   0.000000
   27       15.395188   0.000000
   28       15.879177   0.000000
   29       16.805919   0.000000
   30       16.914887   0.000000
 
 -0.1666667E+00  0.8333333E-01  0.3742002E-15  0.1543210E-02
    1       -4.471227   1.000000
    2        0.406625   1.000000
    3        0.422693   1.000000
    4        0.434157   1.000000
    5        0.960142   1.000000
    6        2.559668   1.000000
    7        3.562347   1.000000
    8        3.719011   1.000000
    9        5.005072   1.000000
   10        5.386292   1.000000
   11        5.438179   1.000000
   12        5.704467   1.000000
   13        5.735448   1.000000
   14        6.891986   1.000000
   15        6.919408   1.000000
   16        8.087360   1.000000
   17        8.351291   1.000000
   18        8.546224   1.000000
   19        8.586139   1.000000
   20       11.007058   0.000000
   21       11.439770   0.000000
   22       12.282697   0.000000
   23       14.110329   0.000000
   24       14.950001   0.000000
   25       15.078617   0.000000
   26       15.631037   0.000000
   27       16.312561   0.000000
   28       16.604904   0.000000
   29       16.718207   0.000000
   30       17.403313   0.000000
 
 -0.8333333E-01  0.8333333E-01  0.3742002E-15  0.1543210E-02
    1       -4.569871   1.000000
    2        0.337868   1.000000
    3        0.342707   1.000000
    4        0.812983   1.000000
    5        1.537826   1.000000
    6        2.625931   1.000000
    7        3.153203   1.000000
    8        3.306124   1.000000
    9        4.348839   1.000000
   10        5.684822   1.000000
   11        5.848888   1.000000
   12        6.209544   1.000000
   13        6.393867   1.000000
   14        6.878467   1.000000
   15        7.108534   1.000000
   16        7.500771   1.000000
   17        7.720473   1.000000
   18        8.000198   1.000000
   19        8.021710   1.000000
   20       10.587031   0.000000
   21       11.036379   0.000000
   22       13.196674   0.000000
   23       14.025443   0.000000
   24       15.253691   0.000000
   25       15.283940   0.000000
   26       16.152047   0.000000
   27       16.453920   0.000000
   28       16.950613   0.000000
   29       17.350074   0.000000
   30       17.414795   0.000000
 
  0.3888291E-15  0.1666667E+00  0.3742002E-15  0.1543210E-02
    1       -4.405513   1.000000
    2        0.382523   1.000000
    3        0.503705   1.000000
    4        0.582140   1.000000
    5        0.972475   1.000000
    6        1.570259   1.000000
    7        3.287869   1.000000
    8        4.656436   1.000000
    9        5.127213   1.000000
   10        5.270960   1.000000
   11        5.540699   1.000000
   12        5.956414   1.000000
   13        5.997149   1.000000
   14        6.186773   1.000000
   15        6.360112   1.000000
   16        8.143090   1.000000
   17        8.169726   1.000000
   18        8.903677   1.000000
   19        9.217241   0.005068
   20       11.522648   0.000000
   21       11.968394   0.000000
   22       12.380898   0.000000
   23       14.110714   0.000000
   24       14.174806   0.000000
   25       15.286853   0.000000
   26       15.292874   0.000000
   27       16.345357   0.000000
   28       16.387791   0.000000
   29       16.830477   0.000000
   30       17.905323   0.000000
 
  0.8333333E-01  0.1666667E+00  0.3742002E-15  0.1543210E-02
    1       -4.234958   1.000000
    2       -0.040904   1.000000
    3        0.551419   1.000000
    4        0.673614   1.000000
    5        0.722218   1.000000
    6        1.587415   1.000000
    7        2.991059   1.000000
    8        4.529395   1.000000
    9        4.793020   1.000000
   10        5.366241   1.000000
   11        5.646567   1.000000
   12        5.889385   1.000000
   13        6.224355   1.000000
   14        6.584153   1.000000
   15        6.621893   1.000000
   16        7.818877   1.000000
   17        7.969372   1.000000
   18        9.939955   0.000000
   19       10.285372   0.000000
   20       12.324755   0.000000
   21       12.454053   0.000000
   22       12.696938   0.000000
   23       12.806934   0.000000
   24       14.007048   0.000000
   25       14.333419   0.000000
   26       15.097295   0.000000
   27       16.255339   0.000000
   28       16.811907   0.000000
   29       17.253520   0.000000
   30       17.274586   0.000000
 
  0.1666667E+00  0.1666667E+00  0.3742002E-15  0.1543210E-02
    1       -3.960133   1.000000
    2       -0.539640   1.000000
    3       -0.249337   1.000000
    4        0.943502   1.000000
    5        0.956098   1.000000
    6        2.089724   1.000000
    7        2.967622   1.000000
    8        3.910693   1.000000
    9        4.283486   1.000000
   10        4.689764   1.000000
   11        5.031342   1.000000
   12        6.716039   1.000000
   13        7.145377   1.000000
   14        7.226217   1.000000
   15        7.251954   1.000000
   16        7.774261   1.000000
   17        8.175818   1.000000
   18       11.002615   0.000000
   19       11.236417   0.000000
   20       11.381573   0.000000
   21       12.385859   0.000000
   22       12.977713   0.000000
   23       13.366989   0.000000
   24       13.879439   0.000000
   25       14.588958   0.000000
   26       14.744863   0.000000
   27       15.887618   0.000000
   28       16.080711   0.000000
   29       16.259420   0.000000
   30       16.557026   0.000000
 
  0.2500000E+00  0.1666667E+00  0.3742002E-15  0.1543210E-02
    1       -3.582016   1.000000
    2       -1.278992   1.000000
    3       -0.665860   1.000000
    4        1.312483   1.000000
    5        1.319662   1.000000
    6        2.212528   1.000000
    7        3.199282   1.000000
    8        3.270641   1.000000
    9        3.949252   1.000000
   10        4.296404   1.000000
   11        4.580733   1.000000
   12        6.882435   1.000000
   13        7.183504   1.000000
   14        8.023382   1.000000
   15        8.355491   1.000000
   16        8.378990   1.000000
   17        9.002708   0.999765
   18        9.826051   0.000000
   19       11.574202   0.000000
   20       12.020571   0.000000
   21       12.425328   0.000000
   22       12.983152   0.000000
   23       14.037279   0.000000
   24       14.632097   0.000000
   25       14.811327   0.000000
   26       14.930858   0.000000
   27       14.964178   0.000000
   28       15.129661   0.000000
   29       15.319408   0.000000
   30       15.797638   0.000000
 
  0.3333333E+00  0.1666667E+00  0.3742002E-15  0.1543210E-02
    1       -3.102134   1.000000
    2       -2.018875   1.000000
    3       -0.894836   1.000000
    4        1.779069   1.000000
    5        1.782826   1.000000
    6        2.208746   1.000000
    7        2.644034   1.000000
    8        2.738018   1.000000
    9        4.062373   1.000000
   10        4.286793   1.000000
   11        4.627917   1.000000
   12        6.902202   1.000000
   13        7.128994   1.000000
   14        8.480675   1.000000
   15        8.654771   1.000000
   16        9.203972   0.014053
   17        9.221798   0.003467
   18        9.897175   0.000000
   19       11.386424   0.000000
   20       12.807292   0.000000
   21       12.942298   0.000000
   22       13.257609   0.000000
   23       13.306522   0.000000
   24       13.615352   0.000000
   25       13.768506   0.000000
   26       14.729291   0.000000
   27       14.956487   0.000000
   28       15.400552   0.000000
   29       15.970027   0.000000
   30       16.224871   0.000000
 
  0.4166667E+00  0.1666667E+00  0.3742002E-15  0.1543210E-02
    1       -2.672689   1.000000
    2       -2.522872   1.000000
    3       -1.013800   1.000000
    4        2.068170   1.000000
    5        2.092940   1.000000
    6        2.324499   1.000000
    7        2.340917   1.000000
    8        2.340921   1.000000
    9        3.949317   1.000000
   10        4.125656   1.000000
   11        5.597920   1.000000
   12        6.938557   1.000000
   13        7.128246   1.000000
   14        7.214195   1.000000
   15        8.280446   1.000000
   16        9.976787   0.000000
   17       10.060865   0.000000
   18       10.680236   0.000000
   19       11.693295   0.000000
   20       12.497851   0.000000
   21       12.640575   0.000000
   22       12.666186   0.000000
   23       12.754428   0.000000
   24       13.040912   0.000000
   25       13.763420   0.000000
   26       14.920159   0.000000
   27       14.924446   0.000000
   28       15.647661   0.000000
   29       15.993814   0.000000
   30       16.046164   0.000000
 
  0.5000000E+00  0.1666667E+00  0.3742002E-15  0.1543210E-02
    1       -3.229396   1.000000
    2       -1.848309   1.000000
    3       -1.029139   1.000000
    4        1.565685   1.000000
    5        1.609857   1.000000
    6        2.423088   1.000000
    7        2.987636   1.000000
    8        2.994401   1.000000
    9        3.938456   1.000000
   10        4.082117   1.000000
   11        6.036753   1.000000
   12        6.621574   1.000000
   13        7.017655   1.000000
   14        7.183298   1.000000
   15        7.434602   1.000000
   16       10.206151   0.000000
   17       10.316394   0.000000
   18       10.491759   0.000000
   19       11.505939   0.000000
   20       12.051101   0.000000
   21       12.236231   0.000000
   22       12.359635   0.000000
   23       12.427216   0.000000
   24       13.881619   0.000000
   25       14.260247   0.000000
   26       14.694890   0.000000
   27       15.142847   0.000000
   28       15.462819   0.000000
   29       15.691106   0.000000
   30       15.843225   0.000000
 
 -0.4166667E+00  0.1666667E+00  0.3742002E-15  0.1543210E-02
    1       -3.685255   1.000000
    2       -1.086524   1.000000
    3       -0.941994   1.000000
    4        1.148723   1.000000
    5        1.185303   1.000000
    6        2.632996   1.000000
    7        3.709514   1.000000
    8        3.733295   1.000000
    9        4.028301   1.000000
   10        4.148331   1.000000
   11        4.959927   1.000000
   12        6.569561   1.000000
   13        7.120080   1.000000
   14        7.260360   1.000000
   15        7.377894   1.000000
   16        9.247620   0.000301
   17        9.648712   0.000000
   18        9.909669   0.000000
   19       11.245217   0.000000
   20       11.439872   0.000000
   21       12.461200   0.000000
   22       12.936043   0.000000
   23       13.193521   0.000000
   24       13.917715   0.000000
   25       14.242557   0.000000
   26       14.399519   0.000000
   27       14.861723   0.000000
   28       15.078261   0.000000
   29       15.159787   0.000000
   30       16.488381   0.000000
 
 -0.3333333E+00  0.1666667E+00  0.3742002E-15  0.1543210E-02
    1       -4.038323   1.000000
    2       -0.753079   1.000000
    3       -0.258268   1.000000
    4        0.823961   1.000000
    5        0.855523   1.000000
    6        2.913559   1.000000
    7        3.995863   1.000000
    8        4.226574   1.000000
    9        4.319996   1.000000
   10        4.457733   1.000000
   11        4.545059   1.000000
   12        5.801171   1.000000
   13        6.842939   1.000000
   14        7.179055   1.000000
   15        7.267889   1.000000
   16        8.967179   0.999997
   17        9.192379   0.030888
   18        9.421266   0.000000
   19       10.468525   0.000000
   20       10.868178   0.000000
   21       12.416434   0.000000
   22       12.763004   0.000000
   23       13.676286   0.000000
   24       13.873161   0.000000
   25       14.258872   0.000000
   26       14.377427   0.000000
   27       14.591527   0.000000
   28       15.627209   0.000000
   29       15.932417   0.000000
   30       17.246619   0.000000
 
 -0.2500000E+00  0.1666667E+00  0.3742002E-15  0.1543210E-02
    1       -4.287429   1.000000
    2       -0.463546   1.000000
    3        0.505403   1.000000
    4        0.595254   1.000000
    5        0.692271   1.000000
    6        3.198457   1.000000
    7        3.237430   1.000000