       N       E                     dE             d eps       ncg     rms          rms(c)
DAV:   1     0.470212601564E+02    0.47021E+02   -0.12762E+04 39000   0.907E+02
DAV:   2    -0.377449104127E+02   -0.84766E+02   -0.81834E+02 50010   0.131E+02
DAV:   3    -0.409878209414E+02   -0.32429E+01   -0.32037E+01 51594   0.217E+01
DAV:   4    -0.410111366488E+02   -0.23316E-01   -0.23299E-01 49860   0.237E+00
DAV:   5    -0.410112919285E+02   -0.15528E-03   -0.15527E-03 49248   0.185E-01
DAV:   6    -0.410112931956E+02   -0.12672E-05   -0.12671E-05 44034   0.188E-02
   1 F= -.41011293E+02 E0= -.41010014E+02  d E =-.255820E-02
