 vasp.5.4.1 24Jun15 (build Nov 23 2015 09:58:10) complex                        
  
 executed on             LinuxIFC date 2020.11.17  18:35:33
 running on   48 total cores
 distrk:  each k-point on   48 cores,    1 groups
 distr:  one band on NCORES_PER_BAND=   8 cores,    6 groups


--------------------------------------------------------------------------------------------------------


 INCAR:
 POTCAR:    PAW_PBE Si 05Jan2001                  
 POTCAR:    PAW_PBE Si 05Jan2001                  
   VRHFIN =Si: s2p2                                                             
   LEXCH  = PE                                                                  
   EATOM  =   103.0669 eV,    7.5752 Ry                                         
                                                                                
   TITEL  = PAW_PBE Si 05Jan2001                                                
   LULTRA =        F    use ultrasoft PP ?                                      
   IUNSCR =        1    unscreen: 0-lin 1-nonlin 2-no                           
   RPACOR =    1.500    partial core radius                                     
   POMASS =   28.085; ZVAL   =    4.000    mass and valenz                      
   RCORE  =    1.900    outmost cutoff radius                                   
   RWIGS  =    2.480; RWIGS  =    1.312    wigner-seitz radius (au A)           
   ENMAX  =  245.345; ENMIN  =  184.009 eV                                      
   ICORE  =        2    local potential                                         
   LCOR   =        T    correct aug charges                                     
   LPAW   =        T    paw PP                                                  
   EAUG   =  322.069                                                            
   DEXC   =    0.000                                                            
   RMAX   =    1.950    core radius for proj-oper                               
   RAUG   =    1.300    factor for augmentation sphere                          
   RDEP   =    1.993    radius for radial grids                                 
   RDEPT  =    1.837    core radius for aug-charge                              
                                                                                
   Atomic configuration                                                         
    6 entries                                                                   
     n  l   j            E        occ.                                          
     1  0  0.50     -1785.8828   2.0000                                         
     2  0  0.50      -139.4969   2.0000                                         
     2  1  1.50       -95.5546   6.0000                                         
     3  0  0.50       -10.8127   2.0000                                         
     3  1  0.50        -4.0811   2.0000                                         
     3  2  1.50        -4.0817   0.0000                                         
   Description                                                                  
     l       E           TYP  RCUT    TYP  RCUT                                 
     0    -10.8127223     23  1.900                                             
     0     -7.6451159     23  1.900                                             
     1     -4.0811372     23  1.900                                             
     1      2.4879257     23  1.900                                             
     2     -4.0817478      7  1.900                                             
  local pseudopotential read in
  partial core-charges read in
  partial kinetic energy density read in
  atomic valenz-charges read in
  non local Contribution for L=           0  read in
    real space projection operators read in
  non local Contribution for L=           0  read in
    real space projection operators read in
  non local Contribution for L=           1  read in
    real space projection operators read in
  non local Contribution for L=           1  read in
    real space projection operators read in
    PAW grid and wavefunctions read in
 
   number of l-projection  operators is LMAX  =           4
   number of lm-projection operators is LMMAX =           8
 

 ----------------------------------------------------------------------------- 
|                                                                             |
|  ADVICE TO THIS USER RUNNING 'VASP/VAMP'   (HEAR YOUR MASTER'S VOICE ...):  |
|                                                                             |
|      You have a (more or less) 'small supercell' and for smaller cells      |
|      it is recommended  to use the reciprocal-space projection scheme!      |
|      The real space optimization is not  efficient for small cells and it   |
|      is also less accurate ...                                              |
|      Therefore set LREAL=.FALSE. in the  INCAR file                         |
|                                                                             |
 ----------------------------------------------------------------------------- 

 Optimization of the real space projectors (new method)

 maximal supplied QI-value         = 19.84
 optimisation between [QCUT,QGAM] = [ 11.51, 23.22] = [ 37.09,150.92] Ry 
 Optimized for a Real-space Cutoff    1.21 Angstroem

   l    n(q)    QCUT    max X(q) W(low)/X(q) W(high)/X(q)  e(spline) 
   0      8    11.508   159.560    0.71E-04    0.15E-03    0.51E-07
   0      8    11.508   115.863    0.70E-04    0.15E-03    0.51E-07
   1      8    11.508    88.339    0.16E-03    0.38E-04    0.82E-07
   1      8    11.508    48.592    0.15E-03    0.36E-04    0.79E-07
  PAW_PBE Si 05Jan2001                  :
 energy of atom  1       EATOM= -103.0669
 kinetic energy error for atom=    0.0005 (will be added to EATOM!!)
 
 
 POSCAR: Si8                                     
  positions in direct lattice
  velocities in cartesian coordinates
 exchange correlation table for  LEXCH =        8
   RHO(1)=    0.500       N(1)  =     2000
   RHO(2)=  100.500       N(2)  =     4000
 


--------------------------------------------------------------------------------------------------------


 ion  position               nearest neighbor table
   1  0.500  0.500  0.772-   2 2.45   4 2.47   4 2.47   5 2.54   7 2.54   8 2.85   6 2.85   2 2.91

   2  0.500  0.500  0.228-   1 2.45   3 2.47   3 2.47   5 2.54   7 2.54   6 2.85   8 2.85   1 2.91

   3  1.000  1.000  0.272-   4 2.45   2 2.47   2 2.47   6 2.54   8 2.54   7 2.85   5 2.85   4 2.91

   4  0.000  0.000  0.728-   3 2.45   1 2.47   1 2.47   6 2.54   8 2.54   5 2.85   7 2.85   3 2.91

   5  0.724  0.276  0.500-   7 2.50   7 2.50   2 2.54   1 2.54   8 2.73   8 2.73   4 2.85   3 2.85

   6  0.224  0.776  0.000-   8 2.50   8 2.50   3 2.54   4 2.54   7 2.73   7 2.73   2 2.85   1 2.85

   7  0.276  0.724  0.500-   5 2.50   5 2.50   2 2.54   1 2.54   6 2.73   6 2.73   3 2.85   4 2.85

   8  0.776  0.224  0.000-   6 2.50   6 2.50   3 2.54   4 2.54   5 2.73   5 2.73   1 2.85   2 2.85

 

IMPORTANT INFORMATION: All symmetrisations will be switched off!
NOSYMM: (Re-)initialisation of all symmetry stuff for point group C_1.

 
 
 KPOINTS: K-Mesh                                  

Automatic generation of k-mesh.
Space group operators:
 irot       det(A)        alpha          n_x          n_y          n_z        tau_x        tau_y        tau_z
    1     1.000000     0.000001     1.000000     0.000000     0.000000     0.000000     0.000000     0.000000
 
 Subroutine IBZKPT returns following result:
 ===========================================
 
 Found    650 irreducible k-points:
 
 Following reciprocal coordinates:
            Coordinates               Weight
  0.000000  0.000000  0.000000      1.000000
  0.083333  0.000000  0.000000      2.000000
  0.166667  0.000000  0.000000      2.000000
  0.250000  0.000000  0.000000      2.000000
  0.333333  0.000000  0.000000      2.000000
  0.416667  0.000000  0.000000      2.000000
  0.500000  0.000000  0.000000      1.000000
  0.000000  0.083333  0.000000      2.000000
  0.083333  0.083333  0.000000      2.000000
  0.166667  0.083333  0.000000      2.000000
  0.250000  0.083333  0.000000      2.000000
  0.333333  0.083333  0.000000      2.000000
  0.416667  0.083333  0.000000      2.000000
  0.500000  0.083333  0.000000      2.000000
 -0.416667  0.083333  0.000000      2.000000
 -0.333333  0.083333  0.000000      2.000000
 -0.250000  0.083333  0.000000      2.000000
 -0.166667  0.083333  0.000000      2.000000
 -0.083333  0.083333  0.000000      2.000000
  0.000000  0.166667  0.000000      2.000000
  0.083333  0.166667  0.000000      2.000000
  0.166667  0.166667  0.000000      2.000000
  0.250000  0.166667  0.000000      2.000000
  0.333333  0.166667  0.000000      2.000000
  0.416667  0.166667  0.000000      2.000000
  0.500000  0.166667  0.000000      2.000000
 -0.416667  0.166667  0.000000      2.000000
 -0.333333  0.166667  0.000000      2.000000
 -0.250000  0.166667  0.000000      2.000000
 -0.166667  0.166667  0.000000      2.000000
 -0.083333  0.166667  0.000000      2.000000
  0.000000  0.250000  0.000000      2.000000
  0.083333  0.250000  0.000000      2.000000
  0.166667  0.250000  0.000000      2.000000
  0.250000  0.250000  0.000000      2.000000
  0.333333  0.250000  0.000000      2.000000
  0.416667  0.250000  0.000000      2.000000
  0.500000  0.250000  0.000000      2.000000
 -0.416667  0.250000  0.000000      2.000000
 -0.333333  0.250000  0.000000      2.000000
 -0.250000  0.250000  0.000000      2.000000
 -0.166667  0.250000  0.000000      2.000000
 -0.083333  0.250000  0.000000      2.000000
  0.000000  0.333333  0.000000      2.000000
  0.083333  0.333333  0.000000      2.000000
  0.166667  0.333333  0.000000      2.000000
  0.250000  0.333333  0.000000      2.000000
  0.333333  0.333333  0.000000      2.000000
  0.416667  0.333333  0.000000      2.000000
  0.500000  0.333333  0.000000      2.000000
 -0.416667  0.333333  0.000000      2.000000
 -0.333333  0.333333  0.000000      2.000000
 -0.250000  0.333333  0.000000      2.000000
 -0.166667  0.333333  0.000000      2.000000
 -0.083333  0.333333  0.000000      2.000000
  0.000000  0.416667  0.000000      2.000000
  0.083333  0.416667  0.000000      2.000000
  0.166667  0.416667  0.000000      2.000000
  0.250000  0.416667  0.000000      2.000000
  0.333333  0.416667  0.000000      2.000000
  0.416667  0.416667  0.000000      2.000000
  0.500000  0.416667  0.000000      2.000000
 -0.416667  0.416667  0.000000      2.000000
 -0.333333  0.416667  0.000000      2.000000
 -0.250000  0.416667  0.000000      2.000000
 -0.166667  0.416667  0.000000      2.000000
 -0.083333  0.416667  0.000000      2.000000
  0.000000  0.500000  0.000000      1.000000
  0.083333  0.500000  0.000000      2.000000
  0.166667  0.500000  0.000000      2.000000
  0.250000  0.500000  0.000000      2.000000
  0.333333  0.500000  0.000000      2.000000
  0.416667  0.500000  0.000000      2.000000
  0.500000  0.500000  0.000000      1.000000
  0.000000  0.000000  0.111111      2.000000
  0.083333  0.000000  0.111111      2.000000
  0.166667  0.000000  0.111111      2.000000
  0.250000  0.000000  0.111111      2.000000
  0.333333  0.000000  0.111111      2.000000
  0.416667  0.000000  0.111111      2.000000
  0.500000  0.000000  0.111111      2.000000
 -0.416667  0.000000  0.111111      2.000000
 -0.333333  0.000000  0.111111      2.000000
 -0.250000  0.000000  0.111111      2.000000
 -0.166667  0.000000  0.111111      2.000000
 -0.083333  0.000000  0.111111      2.000000
  0.000000  0.083333  0.111111      2.000000
  0.083333  0.083333  0.111111      2.000000
  0.166667  0.083333  0.111111      2.000000
  0.250000  0.083333  0.111111      2.000000
  0.333333  0.083333  0.111111      2.000000
  0.416667  0.083333  0.111111      2.000000
  0.500000  0.083333  0.111111      2.000000
 -0.416667  0.083333  0.111111      2.000000
 -0.333333  0.083333  0.111111      2.000000
 -0.250000  0.083333  0.111111      2.000000
 -0.166667  0.083333  0.111111      2.000000
 -0.083333  0.083333  0.111111      2.000000
  0.000000  0.166667  0.111111      2.000000
  0.083333  0.166667  0.111111      2.000000
  0.166667  0.166667  0.111111      2.000000
  0.250000  0.166667  0.111111      2.000000
  0.333333  0.166667  0.111111      2.000000
  0.416667  0.166667  0.111111      2.000000
  0.500000  0.166667  0.111111      2.000000
 -0.416667  0.166667  0.111111      2.000000
 -0.333333  0.166667  0.111111      2.000000
 -0.250000  0.166667  0.111111      2.000000
 -0.166667  0.166667  0.111111      2.000000
 -0.083333  0.166667  0.111111      2.000000
  0.000000  0.250000  0.111111      2.000000
  0.083333  0.250000  0.111111      2.000000
  0.166667  0.250000  0.111111      2.000000
  0.250000  0.250000  0.111111      2.000000
  0.333333  0.250000  0.111111      2.000000
  0.416667  0.250000  0.111111      2.000000
  0.500000  0.250000  0.111111      2.000000
 -0.416667  0.250000  0.111111      2.000000
 -0.333333  0.250000  0.111111      2.000000
 -0.250000  0.250000  0.111111      2.000000
 -0.166667  0.250000  0.111111      2.000000
 -0.083333  0.250000  0.111111      2.000000
  0.000000  0.333333  0.111111      2.000000
  0.083333  0.333333  0.111111      2.000000
  0.166667  0.333333  0.111111      2.000000
  0.250000  0.333333  0.111111      2.000000
  0.333333  0.333333  0.111111      2.000000
  0.416667  0.333333  0.111111      2.000000
  0.500000  0.333333  0.111111      2.000000
 -0.416667  0.333333  0.111111      2.000000
 -0.333333  0.333333  0.111111      2.000000
 -0.250000  0.333333  0.111111      2.000000
 -0.166667  0.333333  0.111111      2.000000
 -0.083333  0.333333  0.111111      2.000000
  0.000000  0.416667  0.111111      2.000000
  0.083333  0.416667  0.111111      2.000000
  0.166667  0.416667  0.111111      2.000000
  0.250000  0.416667  0.111111      2.000000
  0.333333  0.416667  0.111111      2.000000
  0.416667  0.416667  0.111111      2.000000
  0.500000  0.416667  0.111111      2.000000
 -0.416667  0.416667  0.111111      2.000000
 -0.333333  0.416667  0.111111      2.000000
 -0.250000  0.416667  0.111111      2.000000
 -0.166667  0.416667  0.111111      2.000000
 -0.083333  0.416667  0.111111      2.000000
  0.000000  0.500000  0.111111      2.000000
  0.083333  0.500000  0.111111      2.000000
  0.166667  0.500000  0.111111      2.000000
  0.250000  0.500000  0.111111      2.000000
  0.333333  0.500000  0.111111      2.000000
  0.416667  0.500000  0.111111      2.000000
  0.500000  0.500000  0.111111      2.000000
 -0.416667  0.500000  0.111111      2.000000
 -0.333333  0.500000  0.111111      2.000000
 -0.250000  0.500000  0.111111      2.000000
 -0.166667  0.500000  0.111111      2.000000
 -0.083333  0.500000  0.111111      2.000000
  0.000000 -0.416667  0.111111      2.000000
  0.083333 -0.416667  0.111111      2.000000
  0.166667 -0.416667  0.111111      2.000000
  0.250000 -0.416667  0.111111      2.000000
  0.333333 -0.416667  0.111111      2.000000
  0.416667 -0.416667  0.111111      2.000000
  0.500000 -0.416667  0.111111      2.000000
 -0.416667 -0.416667  0.111111      2.000000
 -0.333333 -0.416667  0.111111      2.000000
 -0.250000 -0.416667  0.111111      2.000000
 -0.166667 -0.416667  0.111111      2.000000
 -0.083333 -0.416667  0.111111      2.000000
  0.000000 -0.333333  0.111111      2.000000
  0.083333 -0.333333  0.111111      2.000000
  0.166667 -0.333333  0.111111      2.000000
  0.250000 -0.333333  0.111111      2.000000
  0.333333 -0.333333  0.111111      2.000000
  0.416667 -0.333333  0.111111      2.000000
  0.500000 -0.333333  0.111111      2.000000
 -0.416667 -0.333333  0.111111      2.000000
 -0.333333 -0.333333  0.111111      2.000000
 -0.250000 -0.333333  0.111111      2.000000
 -0.166667 -0.333333  0.111111      2.000000
 -0.083333 -0.333333  0.111111      2.000000
  0.000000 -0.250000  0.111111      2.000000
  0.083333 -0.250000  0.111111      2.000000
  0.166667 -0.250000  0.111111      2.000000
  0.250000 -0.250000  0.111111      2.000000
  0.333333 -0.250000  0.111111      2.000000
  0.416667 -0.250000  0.111111      2.000000
  0.500000 -0.250000  0.111111      2.000000
 -0.416667 -0.250000  0.111111      2.000000
 -0.333333 -0.250000  0.111111      2.000000
 -0.250000 -0.250000  0.111111      2.000000
 -0.166667 -0.250000  0.111111      2.000000
 -0.083333 -0.250000  0.111111      2.000000
  0.000000 -0.166667  0.111111      2.000000
  0.083333 -0.166667  0.111111      2.000000
  0.166667 -0.166667  0.111111      2.000000
  0.250000 -0.166667  0.111111      2.000000
  0.333333 -0.166667  0.111111      2.000000
  0.416667 -0.166667  0.111111      2.000000
  0.500000 -0.166667  0.111111      2.000000
 -0.416667 -0.166667  0.111111      2.000000
 -0.333333 -0.166667  0.111111      2.000000
 -0.250000 -0.166667  0.111111      2.000000
 -0.166667 -0.166667  0.111111      2.000000
 -0.083333 -0.166667  0.111111      2.000000
  0.000000 -0.083333  0.111111      2.000000
  0.083333 -0.083333  0.111111      2.000000
  0.166667 -0.083333  0.111111      2.000000
  0.250000 -0.083333  0.111111      2.000000
  0.333333 -0.083333  0.111111      2.000000
  0.416667 -0.083333  0.111111      2.000000
  0.500000 -0.083333  0.111111      2.000000
 -0.416667 -0.083333  0.111111      2.000000
 -0.333333 -0.083333  0.111111      2.000000
 -0.250000 -0.083333  0.111111      2.000000
 -0.166667 -0.083333  0.111111      2.000000
 -0.083333 -0.083333  0.111111      2.000000
  0.000000  0.000000  0.222222      2.000000
  0.083333  0.000000  0.222222      2.000000
  0.166667  0.000000  0.222222      2.000000
  0.250000  0.000000  0.222222      2.000000
  0.333333  0.000000  0.222222      2.000000
  0.416667  0.000000  0.222222      2.000000
  0.500000  0.000000  0.222222      2.000000
 -0.416667  0.000000  0.222222      2.000000
 -0.333333  0.000000  0.222222      2.000000
 -0.250000  0.000000  0.222222      2.000000
 -0.166667  0.000000  0.222222      2.000000
 -0.083333  0.000000  0.222222      2.000000
  0.000000  0.083333  0.222222      2.000000
  0.083333  0.083333  0.222222      2.000000
  0.166667  0.083333  0.222222      2.000000
  0.250000  0.083333  0.222222      2.000000
  0.333333  0.083333  0.222222      2.000000
  0.416667  0.083333  0.222222      2.000000
  0.500000  0.083333  0.222222      2.000000
 -0.416667  0.083333  0.222222      2.000000
 -0.333333  0.083333  0.222222      2.000000
 -0.250000  0.083333  0.222222      2.000000
 -0.166667  0.083333  0.222222      2.000000
 -0.083333  0.083333  0.222222      2.000000
  0.000000  0.166667  0.222222      2.000000
  0.083333  0.166667  0.222222      2.000000
  0.166667  0.166667  0.222222      2.000000
  0.250000  0.166667  0.222222      2.000000
  0.333333  0.166667  0.222222      2.000000
  0.416667  0.166667  0.222222      2.000000
  0.500000  0.166667  0.222222      2.000000
 -0.416667  0.166667  0.222222      2.000000
 -0.333333  0.166667  0.222222      2.000000
 -0.250000  0.166667  0.222222      2.000000
 -0.166667  0.166667  0.222222      2.000000
 -0.083333  0.166667  0.222222      2.000000
  0.000000  0.250000  0.222222      2.000000
  0.083333  0.250000  0.222222      2.000000
  0.166667  0.250000  0.222222      2.000000
  0.250000  0.250000  0.222222      2.000000
  0.333333  0.250000  0.222222      2.000000
  0.416667  0.250000  0.222222      2.000000
  0.500000  0.250000  0.222222      2.000000
 -0.416667  0.250000  0.222222      2.000000
 -0.333333  0.250000  0.222222      2.000000
 -0.250000  0.250000  0.222222      2.000000
 -0.166667  0.250000  0.222222      2.000000
 -0.083333  0.250000  0.222222      2.000000
  0.000000  0.333333  0.222222      2.000000
  0.083333  0.333333  0.222222      2.000000
  0.166667  0.333333  0.222222      2.000000
  0.250000  0.333333  0.222222      2.000000
  0.333333  0.333333  0.222222      2.000000
  0.416667  0.333333  0.222222      2.000000
  0.500000  0.333333  0.222222      2.000000
 -0.416667  0.333333  0.222222      2.000000
 -0.333333  0.333333  0.222222      2.000000
 -0.250000  0.333333  0.222222      2.000000
 -0.166667  0.333333  0.222222      2.000000
 -0.083333  0.333333  0.222222      2.000000
  0.000000  0.416667  0.222222      2.000000
  0.083333  0.416667  0.222222      2.000000
  0.166667  0.416667  0.222222      2.000000
  0.250000  0.416667  0.222222      2.000000
  0.333333  0.416667  0.222222      2.000000
  0.416667  0.416667  0.222222      2.000000
  0.500000  0.416667  0.222222      2.000000
 -0.416667  0.416667  0.222222      2.000000
 -0.333333  0.416667  0.222222      2.000000
 -0.250000  0.416667  0.222222      2.000000
 -0.166667  0.416667  0.222222      2.000000
 -0.083333  0.416667  0.222222      2.000000
  0.000000  0.500000  0.222222      2.000000
  0.083333  0.500000  0.222222      2.000000
  0.166667  0.500000  0.222222      2.000000
  0.250000  0.500000  0.222222      2.000000
  0.333333  0.500000  0.222222      2.000000
  0.416667  0.500000  0.222222      2.000000
  0.500000  0.500000  0.222222      2.000000
 -0.416667  0.500000  0.222222      2.000000
 -0.333333  0.500000  0.222222      2.000000
 -0.250000  0.500000  0.222222      2.000000
 -0.166667  0.500000  0.222222      2.000000
 -0.083333  0.500000  0.222222      2.000000
  0.000000 -0.416667  0.222222      2.000000
  0.083333 -0.416667  0.222222      2.000000
  0.166667 -0.416667  0.222222      2.000000
  0.250000 -0.416667  0.222222      2.000000
  0.333333 -0.416667  0.222222      2.000000
  0.416667 -0.416667  0.222222      2.000000
  0.500000 -0.416667  0.222222      2.000000
 -0.416667 -0.416667  0.222222      2.000000
 -0.333333 -0.416667  0.222222      2.000000
 -0.250000 -0.416667  0.222222      2.000000
 -0.166667 -0.416667  0.222222      2.000000
 -0.083333 -0.416667  0.222222      2.000000
  0.000000 -0.333333  0.222222      2.000000
  0.083333 -0.333333  0.222222      2.000000
  0.166667 -0.333333  0.222222      2.000000
  0.250000 -0.333333  0.222222      2.000000
  0.333333 -0.333333  0.222222      2.000000
  0.416667 -0.333333  0.222222      2.000000
  0.500000 -0.333333  0.222222      2.000000
 -0.416667 -0.333333  0.222222      2.000000
 -0.333333 -0.333333  0.222222      2.000000
 -0.250000 -0.333333  0.222222      2.000000
 -0.166667 -0.333333  0.222222      2.000000
 -0.083333 -0.333333  0.222222      2.000000
  0.000000 -0.250000  0.222222      2.000000
  0.083333 -0.250000  0.222222      2.000000
  0.166667 -0.250000  0.222222      2.000000
  0.250000 -0.250000  0.222222      2.000000
  0.333333 -0.250000  0.222222      2.000000
  0.416667 -0.250000  0.222222      2.000000
  0.500000 -0.250000  0.222222      2.000000
 -0.416667 -0.250000  0.222222      2.000000
 -0.333333 -0.250000  0.222222      2.000000
 -0.250000 -0.250000  0.222222      2.000000
 -0.166667 -0.250000  0.222222      2.000000
 -0.083333 -0.250000  0.222222      2.000000
  0.000000 -0.166667  0.222222      2.000000
  0.083333 -0.166667  0.222222      2.000000
  0.166667 -0.166667  0.222222      2.000000
  0.250000 -0.166667  0.222222      2.000000
  0.333333 -0.166667  0.222222      2.000000
  0.416667 -0.166667  0.222222      2.000000
  0.500000 -0.166667  0.222222      2.000000
 -0.416667 -0.166667  0.222222      2.000000
 -0.333333 -0.166667  0.222222      2.000000
 -0.250000 -0.166667  0.222222      2.000000
 -0.166667 -0.166667  0.222222      2.000000
 -0.083333 -0.166667  0.222222      2.000000
  0.000000 -0.083333  0.222222      2.000000
  0.083333 -0.083333  0.222222      2.000000
  0.166667 -0.083333  0.222222      2.000000
  0.250000 -0.083333  0.222222      2.000000
  0.333333 -0.083333  0.222222      2.000000
  0.416667 -0.083333  0.222222      2.000000
  0.500000 -0.083333  0.222222      2.000000
 -0.416667 -0.083333  0.222222      2.000000
 -0.333333 -0.083333  0.222222      2.000000
 -0.250000 -0.083333  0.222222      2.000000
 -0.166667 -0.083333  0.222222      2.000000
 -0.083333 -0.083333  0.222222      2.000000
  0.000000  0.000000  0.333333      2.000000
  0.083333  0.000000  0.333333      2.000000
  0.166667  0.000000  0.333333      2.000000
  0.250000  0.000000  0.333333      2.000000
  0.333333  0.000000  0.333333      2.000000
  0.416667  0.000000  0.333333      2.000000
  0.500000  0.000000  0.333333      2.000000
 -0.416667  0.000000  0.333333      2.000000
 -0.333333  0.000000  0.333333      2.000000
 -0.250000  0.000000  0.333333      2.000000
 -0.166667  0.000000  0.333333      2.000000
 -0.083333  0.000000  0.333333      2.000000
  0.000000  0.083333  0.333333      2.000000
  0.083333  0.083333  0.333333      2.000000
  0.166667  0.083333  0.333333      2.000000
  0.250000  0.083333  0.333333      2.000000
  0.333333  0.083333  0.333333      2.000000
  0.416667  0.083333  0.333333      2.000000
  0.500000  0.083333  0.333333      2.000000
 -0.416667  0.083333  0.333333      2.000000
 -0.333333  0.083333  0.333333      2.000000
 -0.250000  0.083333  0.333333      2.000000
 -0.166667  0.083333  0.333333      2.000000
 -0.083333  0.083333  0.333333      2.000000
  0.000000  0.166667  0.333333      2.000000
  0.083333  0.166667  0.333333      2.000000
  0.166667  0.166667  0.333333      2.000000
  0.250000  0.166667  0.333333      2.000000
  0.333333  0.166667  0.333333      2.000000
  0.416667  0.166667  0.333333      2.000000
  0.500000  0.166667  0.333333      2.000000
 -0.416667  0.166667  0.333333      2.000000
 -0.333333  0.166667  0.333333      2.000000
 -0.250000  0.166667  0.333333      2.000000
 -0.166667  0.166667  0.333333      2.000000
 -0.083333  0.166667  0.333333      2.000000
  0.000000  0.250000  0.333333      2.000000
  0.083333  0.250000  0.333333      2.000000
  0.166667  0.250000  0.333333      2.000000
  0.250000  0.250000  0.333333      2.000000
  0.333333  0.250000  0.333333      2.000000
  0.416667  0.250000  0.333333      2.000000
  0.500000  0.250000  0.333333      2.000000
 -0.416667  0.250000  0.333333      2.000000
 -0.333333  0.250000  0.333333      2.000000
 -0.250000  0.250000  0.333333      2.000000
 -0.166667  0.250000  0.333333      2.000000
 -0.083333  0.250000  0.333333      2.000000
  0.000000  0.333333  0.333333      2.000000
  0.083333  0.333333  0.333333      2.000000
  0.166667  0.333333  0.333333      2.000000
  0.250000  0.333333  0.333333      2.000000
  0.333333  0.333333  0.333333      2.000000
  0.416667  0.333333  0.333333      2.000000
  0.500000  0.333333  0.333333      2.000000
 -0.416667  0.333333  0.333333      2.000000
 -0.333333  0.333333  0.333333      2.000000
 -0.250000  0.333333  0.333333      2.000000
 -0.166667  0.333333  0.333333      2.000000
 -0.083333  0.333333  0.333333      2.000000
  0.000000  0.416667  0.333333      2.000000
  0.083333  0.416667  0.333333      2.000000
  0.166667  0.416667  0.333333      2.000000
  0.250000  0.416667  0.333333      2.000000
  0.333333  0.416667  0.333333      2.000000
  0.416667  0.416667  0.333333      2.000000
  0.500000  0.416667  0.333333      2.000000
 -0.416667  0.416667  0.333333      2.000000
 -0.333333  0.416667  0.333333      2.000000
 -0.250000  0.416667  0.333333      2.000000
 -0.166667  0.416667  0.333333      2.000000
 -0.083333  0.416667  0.333333      2.000000
  0.000000  0.500000  0.333333      2.000000
  0.083333  0.500000  0.333333      2.000000
  0.166667  0.500000  0.333333      2.000000
  0.250000  0.500000  0.333333      2.000000
  0.333333  0.500000  0.333333      2.000000
  0.416667  0.500000  0.333333      2.000000
  0.500000  0.500000  0.333333      2.000000
 -0.416667  0.500000  0.333333      2.000000
 -0.333333  0.500000  0.333333      2.000000
 -0.250000  0.500000  0.333333      2.000000
 -0.166667  0.500000  0.333333      2.000000
 -0.083333  0.500000  0.333333      2.000000
  0.000000 -0.416667  0.333333      2.000000
  0.083333 -0.416667  0.333333      2.000000
  0.166667 -0.416667  0.333333      2.000000
  0.250000 -0.416667  0.333333      2.000000
  0.333333 -0.416667  0.333333      2.000000
  0.416667 -0.416667  0.333333      2.000000
  0.500000 -0.416667  0.333333      2.000000
 -0.416667 -0.416667  0.333333      2.000000
 -0.333333 -0.416667  0.333333      2.000000
 -0.250000 -0.416667  0.333333      2.000000
 -0.166667 -0.416667  0.333333      2.000000
 -0.083333 -0.416667  0.333333      2.000000
  0.000000 -0.333333  0.333333      2.000000
  0.083333 -0.333333  0.333333      2.000000
  0.166667 -0.333333  0.333333      2.000000
  0.250000 -0.333333  0.333333      2.000000
  0.333333 -0.333333  0.333333      2.000000
  0.416667 -0.333333  0.333333      2.000000
  0.500000 -0.333333  0.333333      2.000000
 -0.416667 -0.333333  0.333333      2.000000
 -0.333333 -0.333333  0.333333      2.000000
 -0.250000 -0.333333  0.333333      2.000000
 -0.166667 -0.333333  0.333333      2.000000
 -0.083333 -0.333333  0.333333      2.000000
  0.000000 -0.250000  0.333333      2.000000
  0.083333 -0.250000  0.333333      2.000000
  0.166667 -0.250000  0.333333      2.000000
  0.250000 -0.250000  0.333333      2.000000
  0.333333 -0.250000  0.333333      2.000000
  0.416667 -0.250000  0.333333      2.000000
  0.500000 -0.250000  0.333333      2.000000
 -0.416667 -0.250000  0.333333      2.000000
 -0.333333 -0.250000  0.333333      2.000000
 -0.250000 -0.250000  0.333333      2.000000
 -0.166667 -0.250000  0.333333      2.000000
 -0.083333 -0.250000  0.333333      2.000000
  0.000000 -0.166667  0.333333      2.000000
  0.083333 -0.166667  0.333333      2.000000
  0.166667 -0.166667  0.333333      2.000000
  0.250000 -0.166667  0.333333      2.000000
  0.333333 -0.166667  0.333333      2.000000
  0.416667 -0.166667  0.333333      2.000000
  0.500000 -0.166667  0.333333      2.000000
 -0.416667 -0.166667  0.333333      2.000000
 -0.333333 -0.166667  0.333333      2.000000
 -0.250000 -0.166667  0.333333      2.000000
 -0.166667 -0.166667  0.333333      2.000000
 -0.083333 -0.166667  0.333333      2.000000
  0.000000 -0.083333  0.333333      2.000000
  0.083333 -0.083333  0.333333      2.000000
  0.166667 -0.083333  0.333333      2.000000
  0.250000 -0.083333  0.333333      2.000000
  0.333333 -0.083333  0.333333      2.000000
  0.416667 -0.083333  0.333333      2.000000
  0.500000 -0.083333  0.333333      2.000000
 -0.416667 -0.083333  0.333333      2.000000
 -0.333333 -0.083333  0.333333      2.000000
 -0.250000 -0.083333  0.333333      2.000000
 -0.166667 -0.083333  0.333333      2.000000
 -0.083333 -0.083333  0.333333      2.000000
  0.000000  0.000000  0.444444      2.000000
  0.083333  0.000000  0.444444      2.000000
  0.166667  0.000000  0.444444      2.000000
  0.250000  0.000000  0.444444      2.000000
  0.333333  0.000000  0.444444      2.000000
  0.416667  0.000000  0.444444      2.000000
  0.500000  0.000000  0.444444      2.000000
 -0.416667  0.000000  0.444444      2.000000
 -0.333333  0.000000  0.444444      2.000000
 -0.250000  0.000000  0.444444      2.000000
 -0.166667  0.000000  0.444444      2.000000
 -0.083333  0.000000  0.444444      2.000000
  0.000000  0.083333  0.444444      2.000000
  0.083333  0.083333  0.444444      2.000000
  0.166667  0.083333  0.444444      2.000000
  0.250000  0.083333  0.444444      2.000000
  0.333333  0.083333  0.444444      2.000000
  0.416667  0.083333  0.444444      2.000000
  0.500000  0.083333  0.444444      2.000000
 -0.416667  0.083333  0.444444      2.000000
 -0.333333  0.083333  0.444444      2.000000
 -0.250000  0.083333  0.444444      2.000000
 -0.166667  0.083333  0.444444      2.000000
 -0.083333  0.083333  0.444444      2.000000
  0.000000  0.166667  0.444444      2.000000
  0.083333  0.166667  0.444444      2.000000
  0.166667  0.166667  0.444444      2.000000
  0.250000  0.166667  0.444444      2.000000
  0.333333  0.166667  0.444444      2.000000
  0.416667  0.166667  0.444444      2.000000
  0.500000  0.166667  0.444444      2.000000
 -0.416667  0.166667  0.444444      2.000000
 -0.333333  0.166667  0.444444      2.000000
 -0.250000  0.166667  0.444444      2.000000
 -0.166667  0.166667  0.444444      2.000000
 -0.083333  0.166667  0.444444      2.000000
  0.000000  0.250000  0.444444      2.000000
  0.083333  0.250000  0.444444      2.000000
  0.166667  0.250000  0.444444      2.000000
  0.250000  0.250000  0.444444      2.000000
  0.333333  0.250000  0.444444      2.000000
  0.416667  0.250000  0.444444      2.000000
  0.500000  0.250000  0.444444      2.000000
 -0.416667  0.250000  0.444444      2.000000
 -0.333333  0.250000  0.444444      2.000000
 -0.250000  0.250000  0.444444      2.000000
 -0.166667  0.250000  0.444444      2.000000
 -0.083333  0.250000  0.444444      2.000000
  0.000000  0.333333  0.444444      2.000000
  0.083333  0.333333  0.444444      2.000000
  0.166667  0.333333  0.444444      2.000000
  0.250000  0.333333  0.444444      2.000000
  0.333333  0.333333  0.444444      2.000000
  0.416667  0.333333  0.444444      2.000000
  0.500000  0.333333  0.444444      2.000000
 -0.416667  0.333333  0.444444      2.000000
 -0.333333  0.333333  0.444444      2.000000
 -0.250000  0.333333  0.444444      2.000000
 -0.166667  0.333333  0.444444      2.000000
 -0.083333  0.333333  0.444444      2.000000
  0.000000  0.416667  0.444444      2.000000
  0.083333  0.416667  0.444444      2.000000
  0.166667  0.416667  0.444444      2.000000
  0.250000  0.416667  0.444444      2.000000
  0.333333  0.416667  0.444444      2.000000
  0.416667  0.416667  0.444444      2.000000
  0.500000  0.416667  0.444444      2.000000
 -0.416667  0.416667  0.444444      2.000000
 -0.333333  0.416667  0.444444      2.000000
 -0.250000  0.416667  0.444444      2.000000
 -0.166667  0.416667  0.444444      2.000000
 -0.083333  0.416667  0.444444      2.000000
  0.000000  0.500000  0.444444      2.000000
  0.083333  0.500000  0.444444      2.000000
  0.166667  0.500000  0.444444      2.000000
  0.250000  0.500000  0.444444      2.000000
  0.333333  0.500000  0.444444      2.000000
  0.416667  0.500000  0.444444      2.000000
  0.500000  0.500000  0.444444      2.000000
 -0.416667  0.500000  0.444444      2.000000
 -0.333333  0.500000  0.444444      2.000000
 -0.250000  0.500000  0.444444      2.000000
 -0.166667  0.500000  0.444444      2.000000
 -0.083333  0.500000  0.444444      2.000000
  0.000000 -0.416667  0.444444      2.000000
  0.083333 -0.416667  0.444444      2.000000
  0.166667 -0.416667  0.444444      2.000000
  0.250000 -0.416667  0.444444      2.000000
  0.333333 -0.416667  0.444444      2.000000
  0.416667 -0.416667  0.444444      2.000000
  0.500000 -0.416667  0.444444      2.000000
 -0.416667 -0.416667  0.444444      2.000000
 -0.333333 -0.416667  0.444444      2.000000
 -0.250000 -0.416667  0.444444      2.000000
 -0.166667 -0.416667  0.444444      2.000000
 -0.083333 -0.416667  0.444444      2.000000
  0.000000 -0.333333  0.444444      2.000000
  0.083333 -0.333333  0.444444      2.000000
  0.166667 -0.333333  0.444444      2.000000
  0.250000 -0.333333  0.444444      2.000000
  0.333333 -0.333333  0.444444      2.000000
  0.416667 -0.333333  0.444444      2.000000
  0.500000 -0.333333  0.444444      2.000000
 -0.416667 -0.333333  0.444444      2.000000
 -0.333333 -0.333333  0.444444      2.000000
 -0.250000 -0.333333  0.444444      2.000000
 -0.166667 -0.333333  0.444444      2.000000
 -0.083333 -0.333333  0.444444      2.000000
  0.000000 -0.250000  0.444444      2.000000
  0.083333 -0.250000  0.444444      2.000000
  0.166667 -0.250000  0.444444      2.000000
  0.250000 -0.250000  0.444444      2.000000
  0.333333 -0.250000  0.444444      2.000000
  0.416667 -0.250000  0.444444      2.000000
  0.500000 -0.250000  0.444444      2.000000
 -0.416667 -0.250000  0.444444      2.000000
 -0.333333 -0.250000  0.444444      2.000000
 -0.250000 -0.250000  0.444444      2.000000
 -0.166667 -0.250000  0.444444      2.000000
 -0.083333 -0.250000  0.444444      2.000000
  0.000000 -0.166667  0.444444      2.000000
  0.083333 -0.166667  0.444444      2.000000
  0.166667 -0.166667  0.444444      2.000000
  0.250000 -0.166667  0.444444      2.000000
  0.333333 -0.166667  0.444444      2.000000
  0.416667 -0.166667  0.444444      2.000000
  0.500000 -0.166667  0.444444      2.000000
 -0.416667 -0.166667  0.444444      2.000000
 -0.333333 -0.166667  0.444444      2.000000
 -0.250000 -0.166667  0.444444      2.000000
 -0.166667 -0.166667  0.444444      2.000000
 -0.083333 -0.166667  0.444444      2.000000
  0.000000 -0.083333  0.444444      2.000000
  0.083333 -0.083333  0.444444      2.000000
  0.166667 -0.083333  0.444444      2.000000
  0.250000 -0.083333  0.444444      2.000000
  0.333333 -0.083333  0.444444      2.000000
  0.416667 -0.083333  0.444444      2.000000
  0.500000 -0.083333  0.444444      2.000000
 -0.416667 -0.083333  0.444444      2.000000
 -0.333333 -0.083333  0.444444      2.000000
 -0.250000 -0.083333  0.444444      2.000000
 -0.166667 -0.083333  0.444444      2.000000
 -0.083333 -0.083333  0.444444      2.000000
 
 Following cartesian coordinates:
            Coordinates               Weight
  0.000000 -0.000000  0.000000      1.000000
  0.016966 -0.008954  0.000000      2.000000
  0.033932 -0.017909  0.000000      2.000000
  0.050898 -0.026863  0.000000      2.000000
  0.067864 -0.035817  0.000000      2.000000
  0.084830 -0.044772  0.000000      2.000000
  0.101796 -0.053726  0.000000      1.000000
  0.016966  0.008954 -0.000000      2.000000
  0.033932  0.000000  0.000000      2.000000
  0.050898 -0.008954  0.000000      2.000000
  0.067864 -0.017909  0.000000      2.000000
  0.084830 -0.026863  0.000000      2.000000
  0.101796 -0.035817  0.000000      2.000000
  0.118762 -0.044772  0.000000      2.000000
 -0.067864  0.053726 -0.000000      2.000000
 -0.050898  0.044772 -0.000000      2.000000
 -0.033932  0.035817 -0.000000      2.000000
 -0.016966  0.026863 -0.000000      2.000000
 -0.000000  0.017909 -0.000000      2.000000
  0.033932  0.017909 -0.000000      2.000000
  0.050898  0.008954 -0.000000      2.000000
  0.067864  0.000000  0.000000      2.000000
  0.084830 -0.008954  0.000000      2.000000
  0.101796 -0.017909  0.000000      2.000000
  0.118762 -0.026863  0.000000      2.000000
  0.135728 -0.035817  0.000000      2.000000
 -0.050898  0.062680 -0.000000      2.000000
 -0.033932  0.053726 -0.000000      2.000000
 -0.016966  0.044772 -0.000000      2.000000
 -0.000000  0.035817 -0.000000      2.000000
  0.016966  0.026863 -0.000000      2.000000
  0.050898  0.026863 -0.000000      2.000000
  0.067864  0.017909 -0.000000      2.000000
  0.084830  0.008954 -0.000000      2.000000
  0.101796  0.000000  0.000000      2.000000
  0.118762 -0.008954  0.000000      2.000000
  0.135728 -0.017909  0.000000      2.000000
  0.152695 -0.026863  0.000000      2.000000
 -0.033932  0.071635 -0.000000      2.000000
 -0.016966  0.062680 -0.000000      2.000000
 -0.000000  0.053726 -0.000000      2.000000
  0.016966  0.044772 -0.000000      2.000000
  0.033932  0.035817 -0.000000      2.000000
  0.067864  0.035817 -0.000000      2.000000
  0.084830  0.026863 -0.000000      2.000000
  0.101796  0.017909 -0.000000      2.000000
  0.118762  0.008954  0.000000      2.000000
  0.135728  0.000000  0.000000      2.000000
  0.152695 -0.008954  0.000000      2.000000
  0.169661 -0.017909  0.000000      2.000000
 -0.016966  0.080589 -0.000000      2.000000
 -0.000000  0.071635 -0.000000      2.000000
  0.016966  0.062680 -0.000000      2.000000
  0.033932  0.053726 -0.000000      2.000000
  0.050898  0.044772 -0.000000      2.000000
  0.084830  0.044772 -0.000000      2.000000
  0.101796  0.035817 -0.000000      2.000000
  0.118762  0.026863 -0.000000      2.000000
  0.135728  0.017909 -0.000000      2.000000
  0.152695  0.008954  0.000000      2.000000
  0.169661  0.000000  0.000000      2.000000
  0.186627 -0.008954  0.000000      2.000000
 -0.000000  0.089543 -0.000000      2.000000
  0.016966  0.080589 -0.000000      2.000000
  0.033932  0.071635 -0.000000      2.000000
  0.050898  0.062680 -0.000000      2.000000
  0.067864  0.053726 -0.000000      2.000000
  0.101796  0.053726 -0.000000      1.000000
  0.118762  0.044772 -0.000000      2.000000
  0.135728  0.035817 -0.000000      2.000000
  0.152695  0.026863 -0.000000      2.000000
  0.169661  0.017909 -0.000000      2.000000
  0.186627  0.008954  0.000000      2.000000
  0.203593  0.000000  0.000000      1.000000
 -0.000000 -0.000000  0.020726      2.000000
  0.016966 -0.008954  0.020726      2.000000
  0.033932 -0.017909  0.020726      2.000000
  0.050898 -0.026863  0.020726      2.000000
  0.067864 -0.035817  0.020726      2.000000
  0.084830 -0.044772  0.020726      2.000000
  0.101796 -0.053726  0.020726      2.000000
 -0.084830  0.044772  0.020726      2.000000
 -0.067864  0.035817  0.020726      2.000000
 -0.050898  0.026863  0.020726      2.000000
 -0.033932  0.017909  0.020726      2.000000
 -0.016966  0.008954  0.020726      2.000000
  0.016966  0.008954  0.020726      2.000000
  0.033932 -0.000000  0.020726      2.000000
  0.050898 -0.008954  0.020726      2.000000
  0.067864 -0.017909  0.020726      2.000000
  0.084830 -0.026863  0.020726      2.000000
  0.101796 -0.035817  0.020726      2.000000
  0.118762 -0.044772  0.020726      2.000000
 -0.067864  0.053726  0.020726      2.000000
 -0.050898  0.044772  0.020726      2.000000
 -0.033932  0.035817  0.020726      2.000000
 -0.016966  0.026863  0.020726      2.000000
 -0.000000  0.017909  0.020726      2.000000
  0.033932  0.017909  0.020726      2.000000
  0.050898  0.008954  0.020726      2.000000
  0.067864 -0.000000  0.020726      2.000000
  0.084830 -0.008954  0.020726      2.000000
  0.101796 -0.017909  0.020726      2.000000
  0.118762 -0.026863  0.020726      2.000000
  0.135728 -0.035817  0.020726      2.000000
 -0.050898  0.062680  0.020726      2.000000
 -0.033932  0.053726  0.020726      2.000000
 -0.016966  0.044772  0.020726      2.000000
 -0.000000  0.035817  0.020726      2.000000
  0.016966  0.026863  0.020726      2.000000
  0.050898  0.026863  0.020726      2.000000
  0.067864  0.017909  0.020726      2.000000
  0.084830  0.008954  0.020726      2.000000
  0.101796 -0.000000  0.020726      2.000000
  0.118762 -0.008954  0.020726      2.000000
  0.135728 -0.017909  0.020726      2.000000
  0.152695 -0.026863  0.020726      2.000000
 -0.033932  0.071635  0.020726      2.000000
 -0.016966  0.062680  0.020726      2.000000
 -0.000000  0.053726  0.020726      2.000000
  0.016966  0.044772  0.020726      2.000000
  0.033932  0.035817  0.020726      2.000000
  0.067864  0.035817  0.020726      2.000000
  0.084830  0.026863  0.020726      2.000000
  0.101796  0.017909  0.020726      2.000000
  0.118762  0.008954  0.020726      2.000000
  0.135728 -0.000000  0.020726      2.000000
  0.152695 -0.008954  0.020726      2.000000
  0.169661 -0.017909  0.020726      2.000000
 -0.016966  0.080589  0.020726      2.000000
 -0.000000  0.071635  0.020726      2.000000
  0.016966  0.062680  0.020726      2.000000
  0.033932  0.053726  0.020726      2.000000
  0.050898  0.044772  0.020726      2.000000
  0.084830  0.044772  0.020726      2.000000
  0.101796  0.035817  0.020726      2.000000
  0.118762  0.026863  0.020726      2.000000
  0.135728  0.017909  0.020726      2.000000
  0.152695  0.008954  0.020726      2.000000
  0.169661 -0.000000  0.020726      2.000000
  0.186627 -0.008954  0.020726      2.000000
 -0.000000  0.089543  0.020726      2.000000
  0.016966  0.080589  0.020726      2.000000
  0.033932  0.071635  0.020726      2.000000
  0.050898  0.062680  0.020726      2.000000
  0.067864  0.053726  0.020726      2.000000
  0.101796  0.053726  0.020726      2.000000
  0.118762  0.044772  0.020726      2.000000
  0.135728  0.035817  0.020726      2.000000
  0.152695  0.026863  0.020726      2.000000
  0.169661  0.017909  0.020726      2.000000
  0.186627  0.008954  0.020726      2.000000
  0.203593 -0.000000  0.020726      2.000000
  0.016966  0.098498  0.020726      2.000000
  0.033932  0.089543  0.020726      2.000000
  0.050898  0.080589  0.020726      2.000000
  0.067864  0.071635  0.020726      2.000000
  0.084830  0.062680  0.020726      2.000000
 -0.084830 -0.044772  0.020726      2.000000
 -0.067864 -0.053726  0.020726      2.000000
 -0.050898 -0.062680  0.020726      2.000000
 -0.033932 -0.071635  0.020726      2.000000
 -0.016966 -0.080589  0.020726      2.000000
  0.000000 -0.089543  0.020726      2.000000
  0.016966 -0.098498  0.020726      2.000000
 -0.169661 -0.000000  0.020726      2.000000
 -0.152695 -0.008954  0.020726      2.000000
 -0.135728 -0.017909  0.020726      2.000000
 -0.118762 -0.026863  0.020726      2.000000
 -0.101796 -0.035817  0.020726      2.000000
 -0.067864 -0.035817  0.020726      2.000000
 -0.050898 -0.044772  0.020726      2.000000
 -0.033932 -0.053726  0.020726      2.000000
 -0.016966 -0.062680  0.020726      2.000000
  0.000000 -0.071635  0.020726      2.000000
  0.016966 -0.080589  0.020726      2.000000
  0.033932 -0.089543  0.020726      2.000000
 -0.152695  0.008954  0.020726      2.000000
 -0.135728 -0.000000  0.020726      2.000000
 -0.118762 -0.008954  0.020726      2.000000
 -0.101796 -0.017909  0.020726      2.000000
 -0.084830 -0.026863  0.020726      2.000000
 -0.050898 -0.026863  0.020726      2.000000
 -0.033932 -0.035817  0.020726      2.000000
 -0.016966 -0.044772  0.020726      2.000000
  0.000000 -0.053726  0.020726      2.000000
  0.016966 -0.062680  0.020726      2.000000
  0.033932 -0.071635  0.020726      2.000000
  0.050898 -0.080589  0.020726      2.000000
 -0.135728  0.017909  0.020726      2.000000
 -0.118762  0.008954  0.020726      2.000000
 -0.101796 -0.000000  0.020726      2.000000
 -0.084830 -0.008954  0.020726      2.000000
 -0.067864 -0.017909  0.020726      2.000000
 -0.033932 -0.017909  0.020726      2.000000
 -0.016966 -0.026863  0.020726      2.000000
  0.000000 -0.035817  0.020726      2.000000
  0.016966 -0.044772  0.020726      2.000000
  0.033932 -0.053726  0.020726      2.000000
  0.050898 -0.062680  0.020726      2.000000
  0.067864 -0.071635  0.020726      2.000000
 -0.118762  0.026863  0.020726      2.000000
 -0.101796  0.017909  0.020726      2.000000
 -0.084830  0.008954  0.020726      2.000000
 -0.067864 -0.000000  0.020726      2.000000
 -0.050898 -0.008954  0.020726      2.000000
 -0.016966 -0.008954  0.020726      2.000000
  0.000000 -0.017909  0.020726      2.000000
  0.016966 -0.026863  0.020726      2.000000
  0.033932 -0.035817  0.020726      2.000000
  0.050898 -0.044772  0.020726      2.000000
  0.067864 -0.053726  0.020726      2.000000
  0.084830 -0.062680  0.020726      2.000000
 -0.101796  0.035817  0.020726      2.000000
 -0.084830  0.026863  0.020726      2.000000
 -0.067864  0.017909  0.020726      2.000000
 -0.050898  0.008954  0.020726      2.000000
 -0.033932 -0.000000  0.020726      2.000000
 -0.000000 -0.000000  0.041452      2.000000
  0.016966 -0.008954  0.041452      2.000000
  0.033932 -0.017909  0.041452      2.000000
  0.050898 -0.026863  0.041452      2.000000
  0.067864 -0.035817  0.041452      2.000000
  0.084830 -0.044772  0.041452      2.000000
  0.101796 -0.053726  0.041452      2.000000
 -0.084830  0.044772  0.041452      2.000000
 -0.067864  0.035817  0.041452      2.000000
 -0.050898  0.026863  0.041452      2.000000
 -0.033932  0.017909  0.041452      2.000000
 -0.016966  0.008954  0.041452      2.000000
  0.016966  0.008954  0.041452      2.000000
  0.033932 -0.000000  0.041452      2.000000
  0.050898 -0.008954  0.041452      2.000000
  0.067864 -0.017909  0.041452      2.000000
  0.084830 -0.026863  0.041452      2.000000
  0.101796 -0.035817  0.041452      2.000000
  0.118762 -0.044772  0.041452      2.000000
 -0.067864  0.053726  0.041452      2.000000
 -0.050898  0.044772  0.041452      2.000000
 -0.033932  0.035817  0.041452      2.000000
 -0.016966  0.026863  0.041452      2.000000
 -0.000000  0.017909  0.041452      2.000000
  0.033932  0.017909  0.041452      2.000000
  0.050898  0.008954  0.041452      2.000000
  0.067864 -0.000000  0.041452      2.000000
  0.084830 -0.008954  0.041452      2.000000
  0.101796 -0.017909  0.041452      2.000000
  0.118762 -0.026863  0.041452      2.000000
  0.135728 -0.035817  0.041452      2.000000
 -0.050898  0.062680  0.041452      2.000000
 -0.033932  0.053726  0.041452      2.000000
 -0.016966  0.044772  0.041452      2.000000
 -0.000000  0.035817  0.041452      2.000000
  0.016966  0.026863  0.041452      2.000000
  0.050898  0.026863  0.041452      2.000000
  0.067864  0.017909  0.041452      2.000000
  0.084830  0.008954  0.041452      2.000000
  0.101796 -0.000000  0.041452      2.000000
  0.118762 -0.008954  0.041452      2.000000
  0.135728 -0.017909  0.041452      2.000000
  0.152695 -0.026863  0.041452      2.000000
 -0.033932  0.071635  0.041452      2.000000
 -0.016966  0.062680  0.041452      2.000000
 -0.000000  0.053726  0.041452      2.000000
  0.016966  0.044772  0.041452      2.000000
  0.033932  0.035817  0.041452      2.000000
  0.067864  0.035817  0.041452      2.000000
  0.084830  0.026863  0.041452      2.000000
  0.101796  0.017909  0.041452      2.000000
  0.118762  0.008954  0.041452      2.000000
  0.135728 -0.000000  0.041452      2.000000
  0.152695 -0.008954  0.041452      2.000000
  0.169661 -0.017909  0.041452      2.000000
 -0.016966  0.080589  0.041452      2.000000
 -0.000000  0.071635  0.041452      2.000000
  0.016966  0.062680  0.041452      2.000000
  0.033932  0.053726  0.041452      2.000000
  0.050898  0.044772  0.041452      2.000000
  0.084830  0.044772  0.041452      2.000000
  0.101796  0.035817  0.041452      2.000000
  0.118762  0.026863  0.041452      2.000000
  0.135728  0.017909  0.041452      2.000000
  0.152695  0.008954  0.041452      2.000000
  0.169661 -0.000000  0.041452      2.000000
  0.186627 -0.008954  0.041452      2.000000
 -0.000000  0.089543  0.041452      2.000000
  0.016966  0.080589  0.041452      2.000000
  0.033932  0.071635  0.041452      2.000000
  0.050898  0.062680  0.041452      2.000000
  0.067864  0.053726  0.041452      2.000000
  0.101796  0.053726  0.041452      2.000000
  0.118762  0.044772  0.041452      2.000000
  0.135728  0.035817  0.041452      2.000000
  0.152695  0.026863  0.041452      2.000000
  0.169661  0.017909  0.041452      2.000000
  0.186627  0.008954  0.041452      2.000000
  0.203593 -0.000000  0.041452      2.000000
  0.016966  0.098498  0.041452      2.000000
  0.033932  0.089543  0.041452      2.000000
  0.050898  0.080589  0.041452      2.000000
  0.067864  0.071635  0.041452      2.000000
  0.084830  0.062680  0.041452      2.000000
 -0.084830 -0.044772  0.041452      2.000000
 -0.067864 -0.053726  0.041452      2.000000
 -0.050898 -0.062680  0.041452      2.000000
 -0.033932 -0.071635  0.041452      2.000000
 -0.016966 -0.080589  0.041452      2.000000
  0.000000 -0.089543  0.041452      2.000000
  0.016966 -0.098498  0.041452      2.000000
 -0.169661 -0.000000  0.041452      2.000000
 -0.152695 -0.008954  0.041452      2.000000
 -0.135728 -0.017909  0.041452      2.000000
 -0.118762 -0.026863  0.041452      2.000000
 -0.101796 -0.035817  0.041452      2.000000
 -0.067864 -0.035817  0.041452      2.000000
 -0.050898 -0.044772  0.041452      2.000000
 -0.033932 -0.053726  0.041452      2.000000
 -0.016966 -0.062680  0.041452      2.000000
  0.000000 -0.071635  0.041452      2.000000
  0.016966 -0.080589  0.041452      2.000000
  0.033932 -0.089543  0.041452      2.000000
 -0.152695  0.008954  0.041452      2.000000
 -0.135728 -0.000000  0.041452      2.000000
 -0.118762 -0.008954  0.041452      2.000000
 -0.101796 -0.017909  0.041452      2.000000
 -0.084830 -0.026863  0.041452      2.000000
 -0.050898 -0.026863  0.041452      2.000000
 -0.033932 -0.035817  0.041452      2.000000
 -0.016966 -0.044772  0.041452      2.000000
  0.000000 -0.053726  0.041452      2.000000
  0.016966 -0.062680  0.041452      2.000000
  0.033932 -0.071635  0.041452      2.000000
  0.050898 -0.080589  0.041452      2.000000
 -0.135728  0.017909  0.041452      2.000000
 -0.118762  0.008954  0.041452      2.000000
 -0.101796 -0.000000  0.041452      2.000000
 -0.084830 -0.008954  0.041452      2.000000
 -0.067864 -0.017909  0.041452      2.000000
 -0.033932 -0.017909  0.041452      2.000000
 -0.016966 -0.026863  0.041452      2.000000
  0.000000 -0.035817  0.041452      2.000000
  0.016966 -0.044772  0.041452      2.000000
  0.033932 -0.053726  0.041452      2.000000
  0.050898 -0.062680  0.041452      2.000000
  0.067864 -0.071635  0.041452      2.000000
 -0.118762  0.026863  0.041452      2.000000
 -0.101796  0.017909  0.041452      2.000000
 -0.084830  0.008954  0.041452      2.000000
 -0.067864 -0.000000  0.041452      2.000000
 -0.050898 -0.008954  0.041452      2.000000
 -0.016966 -0.008954  0.041452      2.000000
  0.000000 -0.017909  0.041452      2.000000
  0.016966 -0.026863  0.041452      2.000000
  0.033932 -0.035817  0.041452      2.000000
  0.050898 -0.044772  0.041452      2.000000
  0.067864 -0.053726  0.041452      2.000000
  0.084830 -0.062680  0.041452      2.000000
 -0.101796  0.035817  0.041452      2.000000
 -0.084830  0.026863  0.041452      2.000000
 -0.067864  0.017909  0.041452      2.000000
 -0.050898  0.008954  0.041452      2.000000
 -0.033932 -0.000000  0.041452      2.000000
 -0.000000 -0.000000  0.062179      2.000000
  0.016966 -0.008954  0.062179      2.000000
  0.033932 -0.017909  0.062179      2.000000
  0.050898 -0.026863  0.062179      2.000000
  0.067864 -0.035817  0.062179      2.000000
  0.084830 -0.044772  0.062179      2.000000
  0.101796 -0.053726  0.062179      2.000000
 -0.084830  0.044772  0.062179      2.000000
 -0.067864  0.035817  0.062179      2.000000
 -0.050898  0.026863  0.062179      2.000000
 -0.033932  0.017909  0.062179      2.000000
 -0.016966  0.008954  0.062179      2.000000
  0.016966  0.008954  0.062179      2.000000
  0.033932 -0.000000  0.062179      2.000000
  0.050898 -0.008954  0.062179      2.000000
  0.067864 -0.017909  0.062179      2.000000
  0.084830 -0.026863  0.062179      2.000000
  0.101796 -0.035817  0.062179      2.000000
  0.118762 -0.044772  0.062179      2.000000
 -0.067864  0.053726  0.062179      2.000000
 -0.050898  0.044772  0.062179      2.000000
 -0.033932  0.035817  0.062179      2.000000
 -0.016966  0.026863  0.062179      2.000000
 -0.000000  0.017909  0.062179      2.000000
  0.033932  0.017909  0.062179      2.000000
  0.050898  0.008954  0.062179      2.000000
  0.067864 -0.000000  0.062179      2.000000
  0.084830 -0.008954  0.062179      2.000000
  0.101796 -0.017909  0.062179      2.000000
  0.118762 -0.026863  0.062179      2.000000
  0.135728 -0.035817  0.062179      2.000000
 -0.050898  0.062680  0.062179      2.000000
 -0.033932  0.053726  0.062179      2.000000
 -0.016966  0.044772  0.062179      2.000000
 -0.000000  0.035817  0.062179      2.000000
  0.016966  0.026863  0.062179      2.000000
  0.050898  0.026863  0.062179      2.000000
  0.067864  0.017909  0.062179      2.000000
  0.084830  0.008954  0.062179      2.000000
  0.101796 -0.000000  0.062179      2.000000
  0.118762 -0.008954  0.062179      2.000000
  0.135728 -0.017909  0.062179      2.000000
  0.152695 -0.026863  0.062179      2.000000
 -0.033932  0.071635  0.062179      2.000000
 -0.016966  0.062680  0.062179      2.000000
 -0.000000  0.053726  0.062179      2.000000
  0.016966  0.044772  0.062179      2.000000
  0.033932  0.035817  0.062179      2.000000
  0.067864  0.035817  0.062179      2.000000
  0.084830  0.026863  0.062179      2.000000
  0.101796  0.017909  0.062179      2.000000
  0.118762  0.008954  0.062179      2.000000
  0.135728 -0.000000  0.062179      2.000000
  0.152695 -0.008954  0.062179      2.000000
  0.169661 -0.017909  0.062179      2.000000
 -0.016966  0.080589  0.062179      2.000000
 -0.000000  0.071635  0.062179      2.000000
  0.016966  0.062680  0.062179      2.000000
  0.033932  0.053726  0.062179      2.000000
  0.050898  0.044772  0.062179      2.000000
  0.084830  0.044772  0.062179      2.000000
  0.101796  0.035817  0.062179      2.000000
  0.118762  0.026863  0.062179      2.000000
  0.135728  0.017909  0.062179      2.000000
  0.152695  0.008954  0.062179      2.000000
  0.169661 -0.000000  0.062179      2.000000
  0.186627 -0.008954  0.062179      2.000000
 -0.000000  0.089543  0.062179      2.000000
  0.016966  0.080589  0.062179      2.000000
  0.033932  0.071635  0.062179      2.000000
  0.050898  0.062680  0.062179      2.000000
  0.067864  0.053726  0.062179      2.000000
  0.101796  0.053726  0.062179      2.000000
  0.118762  0.044772  0.062179      2.000000
  0.135728  0.035817  0.062179      2.000000
  0.152695  0.026863  0.062179      2.000000
  0.169661  0.017909  0.062179      2.000000
  0.186627  0.008954  0.062179      2.000000
  0.203593 -0.000000  0.062179      2.000000
  0.016966  0.098498  0.062179      2.000000
  0.033932  0.089543  0.062179      2.000000
  0.050898  0.080589  0.062179      2.000000
  0.067864  0.071635  0.062179      2.000000
  0.084830  0.062680  0.062179      2.000000
 -0.084830 -0.044772  0.062179      2.000000
 -0.067864 -0.053726  0.062179      2.000000
 -0.050898 -0.062680  0.062179      2.000000
 -0.033932 -0.071635  0.062179      2.000000
 -0.016966 -0.080589  0.062179      2.000000
  0.000000 -0.089543  0.062179      2.000000
  0.016966 -0.098498  0.062179      2.000000
 -0.169661 -0.000000  0.062179      2.000000
 -0.152695 -0.008954  0.062179      2.000000
 -0.135728 -0.017909  0.062179      2.000000
 -0.118762 -0.026863  0.062179      2.000000
 -0.101796 -0.035817  0.062179      2.000000
 -0.067864 -0.035817  0.062179      2.000000
 -0.050898 -0.044772  0.062179      2.000000
 -0.033932 -0.053726  0.062179      2.000000
 -0.016966 -0.062680  0.062179      2.000000
  0.000000 -0.071635  0.062179      2.000000
  0.016966 -0.080589  0.062179      2.000000
  0.033932 -0.089543  0.062179      2.000000
 -0.152695  0.008954  0.062179      2.000000
 -0.135728 -0.000000  0.062179      2.000000
 -0.118762 -0.008954  0.062179      2.000000
 -0.101796 -0.017909  0.062179      2.000000
 -0.084830 -0.026863  0.062179      2.000000
 -0.050898 -0.026863  0.062179      2.000000
 -0.033932 -0.035817  0.062179      2.000000
 -0.016966 -0.044772  0.062179      2.000000
  0.000000 -0.053726  0.062179      2.000000
  0.016966 -0.062680  0.062179      2.000000
  0.033932 -0.071635  0.062179      2.000000
  0.050898 -0.080589  0.062179      2.000000
 -0.135728  0.017909  0.062179      2.000000
 -0.118762  0.008954  0.062179      2.000000
 -0.101796 -0.000000  0.062179      2.000000
 -0.084830 -0.008954  0.062179      2.000000
 -0.067864 -0.017909  0.062179      2.000000
 -0.033932 -0.017909  0.062179      2.000000
 -0.016966 -0.026863  0.062179      2.000000
  0.000000 -0.035817  0.062179      2.000000
  0.016966 -0.044772  0.062179      2.000000
  0.033932 -0.053726  0.062179      2.000000
  0.050898 -0.062680  0.062179      2.000000
  0.067864 -0.071635  0.062179      2.000000
 -0.118762  0.026863  0.062179      2.000000
 -0.101796  0.017909  0.062179      2.000000
 -0.084830  0.008954  0.062179      2.000000
 -0.067864 -0.000000  0.062179      2.000000
 -0.050898 -0.008954  0.062179      2.000000
 -0.016966 -0.008954  0.062179      2.000000
 -0.000000 -0.017909  0.062179      2.000000
  0.016966 -0.026863  0.062179      2.000000
  0.033932 -0.035817  0.062179      2.000000
  0.050898 -0.044772  0.062179      2.000000
  0.067864 -0.053726  0.062179      2.000000
  0.084830 -0.062680  0.062179      2.000000
 -0.101796  0.035817  0.062179      2.000000
 -0.084830  0.026863  0.062179      2.000000
 -0.067864  0.017909  0.062179      2.000000
 -0.050898  0.008954  0.062179      2.000000
 -0.033932 -0.000000  0.062179      2.000000
 -0.000000 -0.000000  0.082905      2.000000
  0.016966 -0.008954  0.082905      2.000000
  0.033932 -0.017909  0.082905      2.000000
  0.050898 -0.026863  0.082905      2.000000
  0.067864 -0.035817  0.082905      2.000000
  0.084830 -0.044772  0.082905      2.000000
  0.101796 -0.053726  0.082905      2.000000
 -0.084830  0.044772  0.082905      2.000000
 -0.067864  0.035817  0.082905      2.000000
 -0.050898  0.026863  0.082905      2.000000
 -0.033932  0.017909  0.082905      2.000000
 -0.016966  0.008954  0.082905      2.000000
  0.016966  0.008954  0.082905      2.000000
  0.033932 -0.000000  0.082905      2.000000
  0.050898 -0.008954  0.082905      2.000000
  0.067864 -0.017909  0.082905      2.000000
  0.084830 -0.026863  0.082905      2.000000
  0.101796 -0.035817  0.082905      2.000000
  0.118762 -0.044772  0.082905      2.000000
 -0.067864  0.053726  0.082905      2.000000
 -0.050898  0.044772  0.082905      2.000000
 -0.033932  0.035817  0.082905      2.000000
 -0.016966  0.026863  0.082905      2.000000
 -0.000000  0.017909  0.082905      2.000000
  0.033932  0.017909  0.082905      2.000000
  0.050898  0.008954  0.082905      2.000000
  0.067864 -0.000000  0.082905      2.000000
  0.084830 -0.008954  0.082905      2.000000
  0.101796 -0.017909  0.082905      2.000000
  0.118762 -0.026863  0.082905      2.000000
  0.135728 -0.035817  0.082905      2.000000
 -0.050898  0.062680  0.082905      2.000000
 -0.033932  0.053726  0.082905      2.000000
 -0.016966  0.044772  0.082905      2.000000
 -0.000000  0.035817  0.082905      2.000000
  0.016966  0.026863  0.082905      2.000000
  0.050898  0.026863  0.082905      2.000000
  0.067864  0.017909  0.082905      2.000000
  0.084830  0.008954  0.082905      2.000000
  0.101796 -0.000000  0.082905      2.000000
  0.118762 -0.008954  0.082905      2.000000
  0.135728 -0.017909  0.082905      2.000000
  0.152695 -0.026863  0.082905      2.000000
 -0.033932  0.071635  0.082905      2.000000
 -0.016966  0.062680  0.082905      2.000000
 -0.000000  0.053726  0.082905      2.000000
  0.016966  0.044772  0.082905      2.000000
  0.033932  0.035817  0.082905      2.000000
  0.067864  0.035817  0.082905      2.000000
  0.084830  0.026863  0.082905      2.000000
  0.101796  0.017909  0.082905      2.000000
  0.118762  0.008954  0.082905      2.000000
  0.135728 -0.000000  0.082905      2.000000
  0.152695 -0.008954  0.082905      2.000000
  0.169661 -0.017909  0.082905      2.000000
 -0.016966  0.080589  0.082905      2.000000
 -0.000000  0.071635  0.082905      2.000000
  0.016966  0.062680  0.082905      2.000000
  0.033932  0.053726  0.082905      2.000000
  0.050898  0.044772  0.082905      2.000000
  0.084830  0.044772  0.082905      2.000000
  0.101796  0.035817  0.082905      2.000000
  0.118762  0.026863  0.082905      2.000000
  0.135728  0.017909  0.082905      2.000000
  0.152695  0.008954  0.082905      2.000000
  0.169661 -0.000000  0.082905      2.000000
  0.186627 -0.008954  0.082905      2.000000
 -0.000000  0.089543  0.082905      2.000000
  0.016966  0.080589  0.082905      2.000000
  0.033932  0.071635  0.082905      2.000000
  0.050898  0.062680  0.082905      2.000000
  0.067864  0.053726  0.082905      2.000000
  0.101796  0.053726  0.082905      2.000000
  0.118762  0.044772  0.082905      2.000000
  0.135728  0.035817  0.082905      2.000000
  0.152695  0.026863  0.082905      2.000000
  0.169661  0.017909  0.082905      2.000000
  0.186627  0.008954  0.082905      2.000000
  0.203593 -0.000000  0.082905      2.000000
  0.016966  0.098498  0.082905      2.000000
  0.033932  0.089543  0.082905      2.000000
  0.050898  0.080589  0.082905      2.000000
  0.067864  0.071635  0.082905      2.000000
  0.084830  0.062680  0.082905      2.000000
 -0.084830 -0.044772  0.082905      2.000000
 -0.067864 -0.053726  0.082905      2.000000
 -0.050898 -0.062680  0.082905      2.000000
 -0.033932 -0.071635  0.082905      2.000000
 -0.016966 -0.080589  0.082905      2.000000
  0.000000 -0.089543  0.082905      2.000000
  0.016966 -0.098498  0.082905      2.000000
 -0.169661 -0.000000  0.082905      2.000000
 -0.152695 -0.008954  0.082905      2.000000
 -0.135728 -0.017909  0.082905      2.000000
 -0.118762 -0.026863  0.082905      2.000000
 -0.101796 -0.035817  0.082905      2.000000
 -0.067864 -0.035817  0.082905      2.000000
 -0.050898 -0.044772  0.082905      2.000000
 -0.033932 -0.053726  0.082905      2.000000
 -0.016966 -0.062680  0.082905      2.000000
  0.000000 -0.071635  0.082905      2.000000
  0.016966 -0.080589  0.082905      2.000000
  0.033932 -0.089543  0.082905      2.000000
 -0.152695  0.008954  0.082905      2.000000
 -0.135728 -0.000000  0.082905      2.000000
 -0.118762 -0.008954  0.082905      2.000000
 -0.101796 -0.017909  0.082905      2.000000
 -0.084830 -0.026863  0.082905      2.000000
 -0.050898 -0.026863  0.082905      2.000000
 -0.033932 -0.035817  0.082905      2.000000
 -0.016966 -0.044772  0.082905      2.000000
  0.000000 -0.053726  0.082905      2.000000
  0.016966 -0.062680  0.082905      2.000000
  0.033932 -0.071635  0.082905      2.000000
  0.050898 -0.080589  0.082905      2.000000
 -0.135728  0.017909  0.082905      2.000000
 -0.118762  0.008954  0.082905      2.000000
 -0.101796 -0.000000  0.082905      2.000000
 -0.084830 -0.008954  0.082905      2.000000
 -0.067864 -0.017909  0.082905      2.000000
 -0.033932 -0.017909  0.082905      2.000000
 -0.016966 -0.026863  0.082905      2.000000
  0.000000 -0.035817  0.082905      2.000000
  0.016966 -0.044772  0.082905      2.000000
  0.033932 -0.053726  0.082905      2.000000
  0.050898 -0.062680  0.082905      2.000000
  0.067864 -0.071635  0.082905      2.000000
 -0.118762  0.026863  0.082905      2.000000
 -0.101796  0.017909  0.082905      2.000000
 -0.084830  0.008954  0.082905      2.000000
 -0.067864 -0.000000  0.082905      2.000000
 -0.050898 -0.008954  0.082905      2.000000
 -0.016966 -0.008954  0.082905      2.000000
 -0.000000 -0.017909  0.082905      2.000000
  0.016966 -0.026863  0.082905      2.000000
  0.033932 -0.035817  0.082905      2.000000
  0.050898 -0.044772  0.082905      2.000000
  0.067864 -0.053726  0.082905      2.000000
  0.084830 -0.062680  0.082905      2.000000
 -0.101796  0.035817  0.082905      2.000000
 -0.084830  0.026863  0.082905      2.000000
 -0.067864  0.017909  0.082905      2.000000
 -0.050898  0.008954  0.082905      2.000000
 -0.033932 -0.000000  0.082905      2.000000
 

 ----------------------------------------------------------------------------- 
|                                                                             |
|           W    W    AA    RRRRR   N    N  II  N    N   GGGG   !!!           |
|           W    W   A  A   R    R  NN   N  II  NN   N  G    G  !!!           |
|           W    W  A    A  R    R  N N  N  II  N N  N  G       !!!           |
|           W WW W  AAAAAA  RRRRR   N  N N  II  N  N N  G  GGG   !            |
|           WW  WW  A    A  R   R   N   NN  II  N   NN  G    G                |
|           W    W  A    A  R    R  N    N  II  N    N   GGGG   !!!           |
|                                                                             |
|      The number of bands has been changed from the values supplied          |
|      in the INCAR file. This is a result of running the parallel version.   |
|      The orbitals not found in the WAVECAR file will be initialized with    |
|      random numbers, which is usually adequate. For correlated              |
|      calculations, however, you should redo the groundstate calculation.    |
|      I found NBANDS    =       28  now  NBANDS  =      30                   |
|                                                                             |
 ----------------------------------------------------------------------------- 



--------------------------------------------------------------------------------------------------------




 Dimension of arrays:
   k-points           NKPTS =    650   k-points in BZ     NKDIM =    650   number of bands    NBANDS=     30
   number of dos      NEDOS =   2001   number of ions     NIONS =      8
   non local maximal  LDIM  =      4   non local SUM 2l+1 LMDIM =      8
   total plane-waves  NPLWV =  64000
   max r-space proj   IRMAX =   3933   max aug-charges    IRDMAX= 139897
   dimension x,y,z NGX =    40 NGY =   40 NGZ =   40
   dimension x,y,z NGXF=    80 NGYF=   80 NGZF=   80
   support grid    NGXF=   160 NGYF=  160 NGZF=  160
   ions per type =               8
 NGX,Y,Z   is equivalent  to a cutoff of  12.64, 12.64, 12.40 a.u.
 NGXF,Y,Z  is equivalent  to a cutoff of  25.28, 25.28, 24.81 a.u.


 I would recommend the setting:
   dimension x,y,z NGX =    39 NGY =   39 NGZ =   40
 SYSTEM =  matgen-dos                              
 POSCAR =  Si8                                     

 Startparameter for this run:
   NWRITE =      2    write-flag & timer
   PREC   = accura    normal or accurate (medium, high low for compatibility)
   ISTART =      0    job   : 0-new  1-cont  2-samecut
   ICHARG =     11    charge: 1-file 2-atom 10-const
   ISPIN  =      1    spin polarized calculation?
   LNONCOLLINEAR =      F non collinear calculations
   LSORBIT =      F    spin-orbit coupling
   INIWAV =      1    electr: 0-lowe 1-rand  2-diag
   LASPH  =      F    aspherical Exc in radial PAW
   METAGGA=      F    non-selfconsistent MetaGGA calc.

 Electronic Relaxation 1
   ENCUT  =  520.0 eV  38.22 Ry    6.18 a.u.   9.78  9.78  9.97*2*pi/ulx,y,z
   ENINI  =  520.0     initial cutoff
   ENAUG  =  322.1 eV  augmentation charge cutoff
   NELM   =    200;   NELMIN=  6; NELMDL=  0     # of ELM steps 
   EDIFF  = 0.1E-03   stopping-criterion for ELM
   LREAL  =      T    real-space projection
   NLSPLINE    = F    spline interpolate recip. space projectors
   LCOMPAT=      F    compatible to vasp.4.4
   GGA_COMPAT  = T    GGA compatible to vasp.4.4-vasp.4.6
   LMAXPAW     = -100 max onsite density
   LMAXMIX     =    2 max onsite mixed and CHGCAR
   VOSKOWN=      0    Vosko Wilk Nusair interpolation
   ROPT   =   -0.00025
 Ionic relaxation
   EDIFFG = -.1E-01   stopping-criterion for IOM
   NSW    =      0    number of steps for IOM
   NBLOCK =      1;   KBLOCK =      1    inner block; outer block 
   IBRION =     -1    ionic relax: 0-MD 1-quasi-New 2-CG
   NFREE  =      0    steps in history (QN), initial steepest desc. (CG)
   ISIF   =      2    stress and relaxation
   IWAVPR =     10    prediction:  0-non 1-charg 2-wave 3-comb
   ISYM   =      0    0-nonsym 1-usesym 2-fastsym
   LCORR  =      T    Harris-Foulkes like correction to forces

   POTIM  = 0.2000    time-step for ionic-motion
   TEIN   =    0.0    initial temperature
   TEBEG  =    0.0;   TEEND  =   0.0 temperature during run
   SMASS  =  -3.00    Nose mass-parameter (am)
   estimated Nose-frequenzy (Omega)   =  0.10E-29 period in steps =****** mass=  -0.633E-27a.u.
   SCALEE = 1.0000    scale energy and forces
   NPACO  =    256;   APACO  = 16.0  distance and # of slots for P.C.
   PSTRESS=    0.0 pullay stress

  Mass of Ions in am
   POMASS =  28.09
  Ionic Valenz
   ZVAL   =   4.00
  Atomic Wigner-Seitz radii
   RWIGS  =  -1.00
  virtual crystal weights 
   VCA    =   1.00
   NELECT =      32.0000    total number of electrons
   NUPDOWN=      -1.0000    fix difference up-down

 DOS related values:
   EMIN   =  10.00;   EMAX   =-10.00  energy-range for DOS
   EFERMI =   0.00
   ISMEAR =     0;   SIGMA  =   0.05  broadening in eV -4-tet -1-fermi 0-gaus

 Electronic relaxation 2 (details)
   IALGO  =     38    algorithm
   LDIAG  =      T    sub-space diagonalisation (order eigenvalues)
   LSUBROT=      F    optimize rotation matrix (better conditioning)
   TURBO    =      0    0=normal 1=particle mesh
   IRESTART =      0    0=no restart 2=restart with 2 vectors
   NREBOOT  =      0    no. of reboots
   NMIN     =      0    reboot dimension
   EREF     =   0.00    reference energy to select bands
   IMIX   =      4    mixing-type and parameters
     AMIX     =   0.10;   BMIX     =  1.20
     AMIX_MAG =   0.40;   BMIX_MAG =  1.20
     AMIN     =   0.10
     WC   =   100.;   INIMIX=   1;  MIXPRE=   1;  MAXMIX= -45

 Intra band minimization:
   WEIMIN = 0.0000     energy-eigenvalue tresh-hold
   EBREAK =  0.83E-06  absolut break condition
   DEPER  =   0.30     relativ break condition  

   TIME   =   0.40     timestep for ELM

  volume/ion in A,a.u.               =      15.32       103.36
  Fermi-wavevector in a.u.,A,eV,Ry     =   1.046440  1.977485 14.898879  1.095037
  Thomas-Fermi vector in A             =   2.181278
 
 Write flags
   LWAVE  =      F    write WAVECAR
   LCHARG =      F    write CHGCAR
   LVTOT  =      F    write LOCPOT, total local potential
   LVHAR  =      F    write LOCPOT, Hartree potential only
   LELF   =      F    write electronic localiz. function (ELF)
   LORBIT =     11    0 simple, 1 ext, 2 COOP (PROOUT)


 Dipole corrections
   LMONO  =      F    monopole corrections only (constant potential shift)
   LDIPOL =      F    correct potential (dipole corrections)
   IDIPOL =      0    1-x, 2-y, 3-z, 4-all directions 
   EPSILON=  1.0000000 bulk dielectric constant

 Exchange correlation treatment:
   GGA     =    --    GGA type
   LEXCH   =     8    internal setting for exchange type
   VOSKOWN=      0    Vosko Wilk Nusair interpolation
   LHFCALC =     F    Hartree Fock is set to
   LHFONE  =     F    Hartree Fock one center treatment
   AEXX    =    0.0000 exact exchange contribution

 Linear response parameters
   LEPSILON=     F    determine dielectric tensor
   LRPA    =     F    only Hartree local field effects (RPA)
   LNABLA  =     F    use nabla operator in PAW spheres
   LVEL    =     F    velocity operator in full k-point grid
   LINTERFAST=   F  fast interpolation
   KINTER  =     0    interpolate to denser k-point grid
   CSHIFT  =0.1000    complex shift for real part using Kramers Kronig
   OMEGAMAX=  -1.0    maximum frequency
   DEG_THRESHOLD= 0.2000000E-02 threshold for treating states as degnerate
   RTIME   =    0.100 relaxation time in fs

 Orbital magnetization related:
   ORBITALMAG=     F  switch on orbital magnetization
   LCHIMAG   =     F  perturbation theory with respect to B field
   DQ        =  0.001000  dq finite difference perturbation B field



--------------------------------------------------------------------------------------------------------


 Static calculation
 charge density and potential remain constant during run
 non-spin polarized calculation
 Variant of blocked Davidson
 Davidson routine will perform the subspace rotation
 perform sub-space diagonalisation
    after iterative eigenvector-optimisation
 no mixing
 using additional bands           14
 real space projection scheme for non local part
 use partial core corrections
 calculate Harris-corrections to forces 
   (improved forces if not selfconsistent)
 use gradient corrections 
 WARNING: stress and forces are not correct
  (second derivative of E(xc) not defined)
 use of overlap-Matrix (Vanderbilt PP)
 Gauss-broadening in eV      SIGMA  =   0.05


--------------------------------------------------------------------------------------------------------


  energy-cutoff  :      520.00
  volume of cell :      122.53
      direct lattice vectors                 reciprocal lattice vectors
     2.455883162 -4.653239982 -0.000000005     0.203592748 -0.107452012  0.000000000
     2.455883161  4.653239994  0.000000010     0.203592747  0.107452012 -0.000000000
    -0.000000001  0.000000016  5.360907350    -0.000000000 -0.000000000  0.186535587

  length of vectors
     5.261559126  5.261559136  5.360907350     0.230208475  0.230208474  0.186535587


 
 k-points in units of 2pi/SCALE and weight: K-Mesh                                  
   0.00000000 -0.00000000  0.00000000       0.001
   0.01696606 -0.00895433  0.00000000       0.002
   0.03393212 -0.01790867  0.00000000       0.002
   0.05089819 -0.02686300  0.00000000       0.002
   0.06786425 -0.03581734  0.00000000       0.002
   0.08483031 -0.04477167  0.00000000       0.002
   0.10179637 -0.05372601  0.00000000       0.001
   0.01696606  0.00895433 -0.00000000       0.002
   0.03393212  0.00000000  0.00000000       0.002
   0.05089819 -0.00895433  0.00000000       0.002
   0.06786425 -0.01790867  0.00000000       0.002
   0.08483031 -0.02686300  0.00000000       0.002
   0.10179637 -0.03581734  0.00000000       0.002
   0.11876244 -0.04477167  0.00000000       0.002
  -0.06786425  0.05372601 -0.00000000       0.002
  -0.05089819  0.04477167 -0.00000000       0.002
  -0.03393212  0.03581734 -0.00000000       0.002
  -0.01696606  0.02686300 -0.00000000       0.002
  -0.00000000  0.01790867 -0.00000000       0.002
   0.03393212  0.01790867 -0.00000000       0.002
   0.05089819  0.00895433 -0.00000000       0.002
   0.06786425  0.00000000  0.00000000       0.002
   0.08483031 -0.00895433  0.00000000       0.002
   0.10179637 -0.01790867  0.00000000       0.002
   0.11876244 -0.02686300  0.00000000       0.002
   0.13572850 -0.03581734  0.00000000       0.002
  -0.05089819  0.06268034 -0.00000000       0.002
  -0.03393212  0.05372601 -0.00000000       0.002
  -0.01696606  0.04477167 -0.00000000       0.002
  -0.00000000  0.03581734 -0.00000000       0.002
   0.01696606  0.02686300 -0.00000000       0.002
   0.05089819  0.02686300 -0.00000000       0.002
   0.06786425  0.01790867 -0.00000000       0.002
   0.08483031  0.00895433 -0.00000000       0.002
   0.10179637  0.00000000  0.00000000       0.002
   0.11876244 -0.00895433  0.00000000       0.002
   0.13572850 -0.01790867  0.00000000       0.002
   0.15269456 -0.02686300  0.00000000       0.002
  -0.03393212  0.07163467 -0.00000000       0.002
  -0.01696606  0.06268034 -0.00000000       0.002
  -0.00000000  0.05372601 -0.00000000       0.002
   0.01696606  0.04477167 -0.00000000       0.002
   0.03393212  0.03581734 -0.00000000       0.002
   0.06786425  0.03581734 -0.00000000       0.002
   0.08483031  0.02686300 -0.00000000       0.002
   0.10179637  0.01790867 -0.00000000       0.002
   0.11876244  0.00895433  0.00000000       0.002
   0.13572850  0.00000000  0.00000000       0.002
   0.15269456 -0.00895433  0.00000000       0.002
   0.16966062 -0.01790867  0.00000000       0.002
  -0.01696606  0.08058901 -0.00000000       0.002
  -0.00000000  0.07163467 -0.00000000       0.002
   0.01696606  0.06268034 -0.00000000       0.002
   0.03393212  0.05372601 -0.00000000       0.002
   0.05089819  0.04477167 -0.00000000       0.002
   0.08483031  0.04477167 -0.00000000       0.002
   0.10179637  0.03581734 -0.00000000       0.002
   0.11876244  0.02686300 -0.00000000       0.002
   0.13572850  0.01790867 -0.00000000       0.002
   0.15269456  0.00895433  0.00000000       0.002
   0.16966062  0.00000000  0.00000000       0.002
   0.18662669 -0.00895433  0.00000000       0.002
  -0.00000000  0.08954334 -0.00000000       0.002
   0.01696606  0.08058901 -0.00000000       0.002
   0.03393212  0.07163467 -0.00000000       0.002
   0.05089819  0.06268034 -0.00000000       0.002
   0.06786425  0.05372601 -0.00000000       0.002
   0.10179637  0.05372601 -0.00000000       0.001
   0.11876244  0.04477167 -0.00000000       0.002
   0.13572850  0.03581734 -0.00000000       0.002
   0.15269456  0.02686300 -0.00000000       0.002
   0.16966062  0.01790867 -0.00000000       0.002
   0.18662669  0.00895433  0.00000000       0.002
   0.20359275  0.00000000  0.00000000       0.001
  -0.00000000 -0.00000000  0.02072618       0.002
   0.01696606 -0.00895433  0.02072618       0.002
   0.03393212 -0.01790867  0.02072618       0.002
   0.05089819 -0.02686300  0.02072618       0.002
   0.06786425 -0.03581734  0.02072618       0.002
   0.08483031 -0.04477167  0.02072618       0.002
   0.10179637 -0.05372601  0.02072618       0.002
  -0.08483031  0.04477167  0.02072618       0.002
  -0.06786425  0.03581734  0.02072618       0.002
  -0.05089819  0.02686300  0.02072618       0.002
  -0.03393212  0.01790867  0.02072618       0.002
  -0.01696606  0.00895433  0.02072618       0.002
[...]
      6       2.4278      2.00000
      7       3.5778      2.00000
      8       4.0763      2.00000
      9       4.4408      2.00000
     10       4.6960      2.00000
     11       5.0037      2.00000
     12       5.1221      2.00000
     13       5.9300      2.00000
     14       6.0426      2.00000
     15       6.3756      2.00000
     16       7.3830      2.00000
     17      10.2869      0.00000
     18      11.0242      0.00000
     19      11.8925      0.00000
     20      12.5405      0.00000
     21      12.5828      0.00000
     22      12.7111      0.00000
     23      13.2842      0.00000
     24      13.6563      0.00000
     25      14.0586      0.00000
     26      14.3332      0.00000
     27      14.9499      0.00000
     28      15.1517      0.00000
     29      15.5158      0.00000
     30      16.6825      0.00000

 k-point   642 :       0.2500   -0.0833    0.4444
  band No.  band energies     occupation 
      1      -3.2817      2.00000
      2      -2.7303      2.00000
      3       1.0225      2.00000
      4       1.0253      2.00000
      5       1.5293      2.00000
      6       1.5628      2.00000
      7       3.2226      2.00000
      8       3.7315      2.00000
      9       5.1420      2.00000
     10       5.3176      2.00000
     11       5.6261      2.00000
     12       5.7407      2.00000
     13       6.3958      2.00000
     14       7.0491      2.00000
     15       7.3936      2.00000
     16       7.5652      2.00000
     17       9.9776      0.00000
     18      10.5097      0.00000
     19      11.4900      0.00000
     20      11.7710      0.00000
     21      11.9666      0.00000
     22      12.1871      0.00000
     23      12.4760      0.00000
     24      13.6450      0.00000
     25      14.3766      0.00000
     26      14.6065      0.00000
     27      15.3175      0.00000
     28      15.4328      0.00000
     29      16.0416      0.00000
     30      16.3960      0.00000

 k-point   643 :       0.3333   -0.0833    0.4444
  band No.  band energies     occupation 
      1      -2.9754      2.00000
      2      -2.4251      2.00000
      3       0.1560      2.00000
      4       0.6915      2.00000
      5       0.8049      2.00000
      6       1.3103      2.00000
      7       2.8852      2.00000
      8       3.3937      2.00000
      9       5.9396      2.00000
     10       6.0749      2.00000
     11       6.1556      2.00000
     12       6.6075      2.00000
     13       6.9933      2.00000
     14       7.7767      2.00000
     15       8.0435      2.00000
     16       8.1325      2.00000
     17       9.7472      0.00000
     18      10.2309      0.00000
     19      10.7804      0.00000
     20      11.1382      0.00000
     21      11.3709      0.00000
     22      11.4076      0.00000
     23      12.1749      0.00000
     24      13.5287      0.00000
     25      14.3512      0.00000
     26      14.3661      0.00000
     27      15.4005      0.00000
     28      15.4259      0.00000
     29      16.1080      0.00000
     30      16.1186      0.00000

 k-point   644 :       0.4167   -0.0833    0.4444
  band No.  band energies     occupation 
      1      -2.5662      2.00000
      2      -2.0179      2.00000
      3      -0.6452      2.00000
      4      -0.1029      2.00000
      5       0.6739      2.00000
      6       1.1853      2.00000
      7       2.6217      2.00000
      8       3.1276      2.00000
      9       6.4592      2.00000
     10       6.8984      2.00000
     11       7.0542      2.00000
     12       7.5331      2.00000
     13       7.6951      2.00000
     14       7.8494      2.00000
     15       8.2528      2.00000
     16       8.2954      2.00000
     17       9.5300      0.00000
     18       9.7830      0.00000
     19      10.1592      0.00000
     20      10.7782      0.00000
     21      11.4995      0.00000
     22      11.6682      0.00000
     23      12.0140      0.00000
     24      13.3090      0.00000
     25      13.3749      0.00000
     26      13.4149      0.00000
     27      15.7267      0.00000
     28      15.8447      0.00000
     29      16.1884      0.00000
     30      16.3418      0.00000

 k-point   645 :       0.5000   -0.0833    0.4444
  band No.  band energies     occupation 
      1      -2.0562      2.00000
      2      -1.5237      2.00000
      3      -1.3457      2.00000
      4      -0.8147      2.00000
      5       0.6454      2.00000
      6       1.1567      2.00000
      7       2.4466      2.00000
      8       2.9477      2.00000
      9       6.9292      2.00000
     10       7.3649      2.00000
     11       7.4418      2.00000
     12       7.7002      2.00000
     13       8.0926      2.00000
     14       8.1239      2.00000
     15       8.5580      2.00000
     16       8.5660      2.00000
     17       9.4064      0.00000
     18       9.4594      0.00000
     19       9.7576      0.00000
     20      10.2705      0.00000
     21      11.9804      0.00000
     22      12.3209      0.00000
     23      12.5128      0.00000
     24      12.5941      0.00000
     25      12.9213      0.00000
     26      13.2906      0.00000
     27      14.4067      0.00000
     28      14.8253      0.00000
     29      15.9178      0.00000
     30      16.0105      0.00000

 k-point   646 :      -0.4167   -0.0833    0.4444
  band No.  band energies     occupation 
      1      -1.9867      2.00000
      2      -1.4927      2.00000
      3      -1.3868      2.00000
      4      -0.8955      2.00000
      5       0.7161      2.00000
      6       1.2251      2.00000
      7       2.3639      2.00000
      8       2.8574      2.00000
      9       6.5069      2.00000
     10       6.7204      2.00000
     11       7.4370      2.00000
     12       7.4402      2.00000
     13       8.4889      2.00000
     14       8.5528      2.00000
     15       9.1777      0.14650
     16       9.3591      0.00000
     17       9.4471      0.00000
     18       9.5113      0.00000
     19       9.9998      0.00000
     20      10.0403      0.00000
     21      11.4702      0.00000
     22      12.1050      0.00000
     23      12.1525      0.00000
     24      12.8499      0.00000
     25      13.2110      0.00000
     26      13.3230      0.00000
     27      14.1287      0.00000
     28      14.4909      0.00000
     29      15.5760      0.00000
     30      15.6975      0.00000

 k-point   647 :      -0.3333   -0.0833    0.4444
  band No.  band energies     occupation 
      1      -2.5082      2.00000
      2      -1.9596      2.00000
      3      -0.7342      2.00000
      4      -0.1928      2.00000
      5       0.8854      2.00000
      6       1.3896      2.00000
      7       2.3729      2.00000
      8       2.8548      2.00000
      9       5.5835      2.00000
     10       5.9609      2.00000
     11       6.8656      2.00000
     12       7.7962      2.00000
     13       8.4004      2.00000
     14       8.5758      2.00000
     15       8.7173      2.00000
     16       8.8487      2.00000
     17      10.2311      0.00000
     18      10.3765      0.00000
     19      10.6505      0.00000
     20      10.8249      0.00000
     21      11.0307      0.00000
     22      11.7688      0.00000
     23      12.0514      0.00000
     24      12.1979      0.00000
     25      12.6200      0.00000
     26      13.4884      0.00000
     27      14.8296      0.00000
     28      15.2649      0.00000
     29      15.5311      0.00000
     30      15.8020      0.00000

 k-point   648 :      -0.2500   -0.0833    0.4444
  band No.  band energies     occupation 
      1      -2.9296      2.00000
      2      -2.3791      2.00000
      3       0.0613      2.00000
      4       0.5994      2.00000
      5       1.1521      2.00000
      6       1.6482      2.00000
      7       2.4645      2.00000
      8       2.9285      2.00000
      9       4.7346      2.00000
     10       5.1889      2.00000
     11       6.4357      2.00000
     12       7.6540      2.00000
     13       7.7145      2.00000
     14       8.0021      2.00000
     15       8.3217      2.00000
     16       8.3561      2.00000
     17      10.4111      0.00000
     18      10.7577      0.00000
     19      10.8845      0.00000
     20      11.3589      0.00000
     21      11.4135      0.00000
     22      11.9146      0.00000
     23      12.2751      0.00000
     24      12.6192      0.00000
     25      13.2584      0.00000
     26      13.8964      0.00000
     27      14.4004      0.00000
     28      15.0376      0.00000
     29      15.3447      0.00000
     30      15.4893      0.00000

 k-point   649 :      -0.1667   -0.0833    0.4444
  band No.  band energies     occupation 
      1      -3.2487      2.00000
      2      -2.6971      2.00000
      3       0.9300      2.00000
      4       1.4599      2.00000
      5       1.5176      2.00000
      6       2.0013      2.00000
      7       2.6013      2.00000
      8       3.0380      2.00000
      9       4.0305      2.00000
     10       4.5220      2.00000
     11       6.1270      2.00000
     12       6.7550      2.00000
     13       7.1469      2.00000
     14       7.2744      2.00000
     15       7.5398      2.00000
     16       7.6314      2.00000
     17      10.5728      0.00000
     18      11.0153      0.00000
     19      11.0769      0.00000
     20      11.9084      0.00000
     21      12.1474      0.00000
     22      12.1820      0.00000
     23      12.9401      0.00000
     24      13.5504      0.00000
     25      13.5523      0.00000
     26      14.4310      0.00000
     27      14.7848      0.00000
     28      15.0923      0.00000
     29      15.1757      0.00000
     30      15.2285      0.00000

 k-point   650 :      -0.0833   -0.0833    0.4444
  band No.  band energies     occupation 
      1      -3.4643      2.00000
      2      -2.9120      2.00000
      3       1.7664      2.00000
      4       2.0414      2.00000
      5       2.2153      2.00000
      6       2.5302      2.00000
      7       2.6538      2.00000
      8       3.0354      2.00000
      9       3.6696      2.00000
     10       4.1498      2.00000
     11       5.8582      2.00000
     12       5.9282      2.00000
     13       6.1683      2.00000
     14       6.3063      2.00000
     15       6.6069      2.00000
     16       7.3806      2.00000
     17      11.1461      0.00000
     18      11.2169      0.00000
     19      11.3384      0.00000
     20      12.1698      0.00000
     21      12.5183      0.00000
     22      12.6169      0.00000
     23      13.1782      0.00000
     24      13.9260      0.00000
     25      14.3544      0.00000
     26      14.7325      0.00000
     27      14.7875      0.00000
     28      14.8401      0.00000
     29      15.9719      0.00000
     30      15.9907      0.00000


--------------------------------------------------------------------------------------------------------


 soft charge-density along one line, spin component           1
         0         1         2         3         4         5         6         7         8         9
 total charge-density along one line
 
 pseudopotential strength for first ion, spin component:           1
 18.062  25.198  -0.000  -0.000   0.000  -0.000  -0.001   0.000
 25.198  35.158  -0.000  -0.000   0.000  -0.000  -0.001   0.000
 -0.000  -0.000   4.118   0.000  -0.000   7.671   0.000  -0.000
 -0.000  -0.000   0.000   4.117   0.000   0.000   7.670   0.000
  0.000   0.000  -0.000   0.000   4.116  -0.000   0.000   7.668
 -0.000  -0.000   7.671   0.000  -0.000  14.301   0.000  -0.000
 -0.001  -0.001   0.000   7.670   0.000   0.000  14.300   0.000
  0.000   0.000  -0.000   0.000   7.668  -0.000   0.000  14.297
 total augmentation occupancy for first ion, spin component:           1
  2.000   0.000   0.000   0.000   0.000   0.000   0.000   0.000
  0.000   0.000   0.000   0.000   0.000   0.000   0.000   0.000
  0.000   0.000   0.667   0.000   0.000   0.000   0.000   0.000
  0.000   0.000   0.000   0.667   0.000   0.000   0.000   0.000
  0.000   0.000   0.000   0.000   0.667   0.000   0.000   0.000
  0.000   0.000   0.000   0.000   0.000   0.000   0.000   0.000
  0.000   0.000   0.000   0.000   0.000   0.000   0.000   0.000
  0.000   0.000   0.000   0.000   0.000   0.000   0.000   0.000


------------------------ aborting loop because EDIFF is reached ----------------------------------------


 


 total charge     
 
# of ion     s       p       d       tot
----------------------------------------
  1        0.791   0.820   0.000   1.611
  2        0.791   0.820   0.000   1.611
  3        0.791   0.820   0.000   1.611
  4        0.791   0.820   0.000   1.611
  5        0.792   0.796   0.000   1.588
  6        0.792   0.796   0.000   1.588
  7        0.792   0.796   0.000   1.588
  8        0.792   0.796   0.000   1.588
------------------------------------------------
tot        6.331   6.464   0.000  12.795
 
    CHARGE:  cpu time    0.3160: real time    0.3174
    FORLOC:  cpu time    0.0010: real time    0.0010
    FORNL :  cpu time    2.5076: real time    2.5117
    STRESS:  cpu time    7.1719: real time    7.1841
    FORCOR:  cpu time    0.0160: real time    0.0175
    FORHAR:  cpu time    0.0060: real time    0.0053
    OFIELD:  cpu time    0.0000: real time    0.0003

  FORCE on cell =-STRESS in cart. coord.  units (eV):
  Direction    XX          YY          ZZ          XY          YZ          ZX
  --------------------------------------------------------------------------------------
  Alpha Z    17.58341    17.58341    17.58341
  Ewald    -354.34287  -356.59475  -349.48733    -0.00000    -0.00000     0.00000
  Hartree     2.38414     3.42148     4.26347     0.00000    -0.00000    -0.00000
  E(xc)    -102.00111  -101.25770  -101.38276    -0.00000     0.00000     0.00000
  Local     -59.31215   -44.90457   -54.30725    -0.00001     0.00001     0.00000
  n-local   314.61009   301.50415   303.90473     0.00000    -0.00001    -0.00001
  augment   -48.94863   -47.74652   -47.93791     0.00000    -0.00000    -0.00000
  Kinetic   230.01068   228.04714   227.37415    -0.00000    -0.00001     0.00000
  Fock        0.00000     0.00000     0.00000     0.00000     0.00000     0.00000
  -------------------------------------------------------------------------------------
  Total      -0.01644     0.05264     0.01051    -0.00001    -0.00001    -0.00000
  in kB      -0.21498     0.68835     0.13746    -0.00007    -0.00009    -0.00002
  external pressure =        0.20 kB  Pullay stress =        0.00 kB


 VOLUME and BASIS-vectors are now :
 -----------------------------------------------------------------------------
  energy-cutoff  :      520.00
  volume of cell :      122.53
      direct lattice vectors                 reciprocal lattice vectors
     2.455883162 -4.653239982 -0.000000005     0.203592748 -0.107452012  0.000000000
     2.455883161  4.653239994  0.000000010     0.203592747  0.107452012 -0.000000000
    -0.000000001  0.000000016  5.360907350    -0.000000000 -0.000000000  0.186535587

  length of vectors
     5.261559126  5.261559136  5.360907350     0.230208475  0.230208474  0.186535587


 FORCES acting on ions
    electron-ion (+dipol)            ewald-force                    non-local-force                 convergence-correction
 -----------------------------------------------------------------------------------------------
   -.532E-02 -.857E-04 -.787E+00   0.550E-02 0.689E-06 0.787E+00   -.947E-03 0.250E-04 -.243E-01   0.330E-04 0.537E-04 0.320E-01
   0.522E-02 -.704E-04 0.787E+00   -.550E-02 0.546E-06 -.787E+00   0.985E-03 0.202E-04 0.243E-01   0.255E-04 0.445E-04 -.320E-01
   0.530E-02 -.536E-04 -.787E+00   -.550E-02 0.720E-06 0.787E+00   0.955E-03 0.246E-04 -.243E-01   -.254E-04 0.253E-04 0.321E-01
   -.519E-02 -.829E-05 0.787E+00   0.550E-02 0.575E-06 -.787E+00   -.100E-02 0.280E-05 0.243E-01   -.341E-04 0.483E-05 -.321E-01
   -.398E-04 0.417E+01 0.470E-04   -.926E-06 -.329E+01 0.438E-06   0.200E-04 -.880E+00 -.220E-04   0.170E-04 -.293E-02 -.235E-04
   0.977E-06 0.417E+01 0.313E-04   0.351E-06 -.329E+01 -.977E-06   -.698E-06 -.880E+00 -.242E-04   -.148E-05 -.293E-02 -.476E-05
   0.244E-04 -.417E+01 -.160E-04   0.834E-06 0.329E+01 0.913E-06   -.137E-04 0.880E+00 0.125E-04   -.757E-05 0.286E-02 0.231E-05
   0.288E-04 -.417E+01 -.608E-04   -.305E-06 0.329E+01 -.441E-06   -.188E-04 0.880E+00 0.324E-04   -.874E-05 0.288E-02 0.259E-04
 -----------------------------------------------------------------------------------------------
   0.223E-04 -.109E-04 0.163E-04   0.379E-16 0.533E-14 -.346E-14   -.218E-04 -.387E-06 -.143E-04   -.174E-05 0.836E-05 -.110E-05
 
 
 POSITION                                       TOTAL-FORCE (eV/Angst)
 -----------------------------------------------------------------------------------
      2.45639      0.00000      4.13621        -0.000740     -0.000006      0.007265
      2.45538      0.00000      1.22469         0.000734     -0.000005     -0.007264
      4.91126      0.00000      1.45576         0.000737     -0.000003      0.007256
      0.00050      0.00000      3.90515        -0.000732      0.000000     -0.007257
      2.45588     -2.08024      2.68045        -0.000004     -0.007362      0.000002
      2.45588      2.57300      0.00000        -0.000001     -0.007361      0.000001
      2.45588      2.08024      2.68045         0.000004      0.007371     -0.000000
      2.45588     -2.57300      0.00000         0.000001      0.007365     -0.000003
 -----------------------------------------------------------------------------------
    total drift:                               -0.000001     -0.000003      0.000001


--------------------------------------------------------------------------------------------------------



  FREE ENERGIE OF THE ION-ELECTRON SYSTEM (eV)
  ---------------------------------------------------
  free  energy   TOTEN  =       -41.01129320 eV

  energy  without entropy=      -41.00873500  energy(sigma->0) =      -41.01001410
 


--------------------------------------------------------------------------------------------------------


    POTLOK:  cpu time    0.0490: real time    0.0486


--------------------------------------------------------------------------------------------------------


     LOOP+:  cpu time  118.9719: real time  119.3347
    4ORBIT:  cpu time    0.0000: real time    0.0001
 


 total charge     
 
# of ion     s       p       d       tot
----------------------------------------
  1        0.791   0.820   0.000   1.611
  2        0.791   0.820   0.000   1.611
  3        0.791   0.820   0.000   1.611
  4        0.791   0.820   0.000   1.611
  5        0.792   0.796   0.000   1.588
  6        0.792   0.796   0.000   1.588
  7        0.792   0.796   0.000   1.588
  8        0.792   0.796   0.000   1.588
------------------------------------------------
tot        6.331   6.464   0.000  12.795
 

 total amount of memory used by VASP on root node    56598. kBytes
========================================================================

   base      :      30000. kBytes
   nonlr-proj:        817. kBytes
   fftplans  :       2055. kBytes
   grid      :        947. kBytes
   one-center:          3. kBytes
   wavefun   :      22776. kBytes
 
  
  
 General timing and accounting informations for this job:
 ========================================================
  
                  Total CPU time used (sec):      143.353
                            User time (sec):      131.659
                          System time (sec):       11.694
                         Elapsed time (sec):      144.867
  
                   Maximum memory used (kb):      251020.
                   Average memory used (kb):           0.
  
                          Minor page faults:        66074
                          Major page faults:           10
                 Voluntary context switches:         2135
