  13  13   0   0
  0.2242659E+02  0.7442872E-09  0.7442872E-09  0.7442872E-09  0.5000000E-16
  1.000000000000000E-004
  CAR 
 unknown system                          
     12.09365988    -33.15738416  301      4.88283430      1.00000000
    -33.157  0.0000E+00  0.0000E+00  0.0000E+00  0.0000E+00
    -33.007  0.0000E+00  0.0000E+00  0.0000E+00  0.0000E+00
    -32.856  0.0000E+00  0.0000E+00  0.0000E+00  0.0000E+00
    -32.705  0.0000E+00  0.0000E+00  0.0000E+00  0.0000E+00
    -32.554  0.0000E+00  0.0000E+00  0.0000E+00  0.0000E+00
    -32.403  0.0000E+00  0.0000E+00  0.0000E+00  0.0000E+00
    -32.252  0.0000E+00  0.0000E+00  0.0000E+00  0.0000E+00
    -32.102  0.0000E+00  0.0000E+00  0.0000E+00  0.0000E+00
    -31.951  0.0000E+00  0.0000E+00  0.0000E+00  0.0000E+00
    -31.800  0.0000E+00  0.0000E+00  0.0000E+00  0.0000E+00
    -31.649  0.0000E+00  0.0000E+00  0.0000E+00  0.0000E+00
    -31.498  0.0000E+00  0.0000E+00  0.0000E+00  0.0000E+00
    -31.347  0.8841E-13  0.3610E-17  0.1334E-13  0.5445E-18
    -31.197  0.3512E-03  0.3358E-05  0.5297E-04  0.5065E-06
    -31.046  0.1521E+00  0.9325E-01  0.2299E-01  0.1407E-01
    -30.895  0.2801E+00  0.1441E+00  0.6524E-01  0.3580E-01
    -30.744  0.6421E+00  0.6974E+00  0.1621E+00  0.1410E+00
    -30.593  0.9123E+00  0.1018E+01  0.2997E+00  0.2945E+00
    -30.442  0.1953E-02  0.3652E-01  0.3000E+00  0.3000E+00
    -30.291  0.2815E-12  0.7765E-09  0.3000E+00  0.3000E+00
    -30.141  0.0000E+00  0.0000E+00  0.3000E+00  0.3000E+00
    -29.990  0.0000E+00  0.0000E+00  0.3000E+00  0.3000E+00
    -29.839  0.0000E+00  0.0000E+00  0.3000E+00  0.3000E+00
    -29.688  0.0000E+00  0.0000E+00  0.3000E+00  0.3000E+00
    -29.537  0.0000E+00  0.0000E+00  0.3000E+00  0.3000E+00
    -29.386  0.0000E+00  0.0000E+00  0.3000E+00  0.3000E+00
    -29.236  0.0000E+00  0.0000E+00  0.3000E+00  0.3000E+00
    -29.085  0.0000E+00  0.0000E+00  0.3000E+00  0.3000E+00
    -28.934  0.0000E+00  0.0000E+00  0.3000E+00  0.3000E+00
    -28.783  0.0000E+00  0.0000E+00  0.3000E+00  0.3000E+00
    -28.632  0.0000E+00  0.0000E+00  0.3000E+00  0.3000E+00
    -28.481  0.0000E+00  0.0000E+00  0.3000E+00  0.3000E+00
    -28.331  0.0000E+00  0.0000E+00  0.3000E+00  0.3000E+00
    -28.180  0.0000E+00  0.0000E+00  0.3000E+00  0.3000E+00
    -28.029  0.0000E+00  0.0000E+00  0.3000E+00  0.3000E+00
    -27.878  0.0000E+00  0.0000E+00  0.3000E+00  0.3000E+00
    -27.727  0.0000E+00  0.0000E+00  0.3000E+00  0.3000E+00
    -27.576  0.0000E+00  0.0000E+00  0.3000E+00  0.3000E+00
    -27.426  0.0000E+00  0.0000E+00  0.3000E+00  0.3000E+00
    -27.275  0.0000E+00  0.0000E+00  0.3000E+00  0.3000E+00
    -27.124  0.0000E+00  0.0000E+00  0.3000E+00  0.3000E+00
    -26.973  0.0000E+00  0.0000E+00  0.3000E+00  0.3000E+00
    -26.822  0.0000E+00  0.0000E+00  0.3000E+00  0.3000E+00
    -26.671  0.0000E+00  0.0000E+00  0.3000E+00  0.3000E+00
    -26.521  0.0000E+00  0.0000E+00  0.3000E+00  0.3000E+00
    -26.370  0.0000E+00  0.0000E+00  0.3000E+00  0.3000E+00
    -26.219  0.0000E+00  0.0000E+00  0.3000E+00  0.3000E+00
    -26.068  0.0000E+00  0.0000E+00  0.3000E+00  0.3000E+00
    -25.917  0.0000E+00  0.0000E+00  0.3000E+00  0.3000E+00
    -25.766  0.0000E+00  0.0000E+00  0.3000E+00  0.3000E+00
    -25.616  0.0000E+00  0.0000E+00  0.3000E+00  0.3000E+00
    -25.465  0.0000E+00  0.0000E+00  0.3000E+00  0.3000E+00
    -25.314  0.0000E+00  0.0000E+00  0.3000E+00  0.3000E+00
    -25.163  0.0000E+00  0.0000E+00  0.3000E+00  0.3000E+00
    -25.012  0.0000E+00  0.0000E+00  0.3000E+00  0.3000E+00
    -24.861  0.0000E+00  0.0000E+00  0.3000E+00  0.3000E+00
    -24.711  0.0000E+00  0.0000E+00  0.3000E+00  0.3000E+00
    -24.560  0.0000E+00  0.0000E+00  0.3000E+00  0.3000E+00
    -24.409  0.0000E+00  0.0000E+00  0.3000E+00  0.3000E+00
    -24.258  0.0000E+00  0.0000E+00  0.3000E+00  0.3000E+00
    -24.107  0.0000E+00  0.0000E+00  0.3000E+00  0.3000E+00
    -23.956  0.0000E+00  0.0000E+00  0.3000E+00  0.3000E+00
    -23.806  0.0000E+00  0.0000E+00  0.3000E+00  0.3000E+00
    -23.655  0.0000E+00  0.0000E+00  0.3000E+00  0.3000E+00
    -23.504  0.0000E+00  0.0000E+00  0.3000E+00  0.3000E+00
    -23.353  0.0000E+00  0.0000E+00  0.3000E+00  0.3000E+00
    -23.202  0.0000E+00  0.0000E+00  0.3000E+00  0.3000E+00
    -23.051  0.0000E+00  0.0000E+00  0.3000E+00  0.3000E+00
    -22.900  0.0000E+00  0.0000E+00  0.3000E+00  0.3000E+00
    -22.750  0.0000E+00  0.0000E+00  0.3000E+00  0.3000E+00
    -22.599  0.0000E+00  0.0000E+00  0.3000E+00  0.3000E+00
    -22.448  0.0000E+00  0.0000E+00  0.3000E+00  0.3000E+00
    -22.297  0.0000E+00  0.0000E+00  0.3000E+00  0.3000E+00
    -22.146  0.0000E+00  0.0000E+00  0.3000E+00  0.3000E+00
    -21.995  0.0000E+00  0.0000E+00  0.3000E+00  0.3000E+00
    -21.845  0.0000E+00  0.0000E+00  0.3000E+00  0.3000E+00
    -21.694  0.0000E+00  0.0000E+00  0.3000E+00  0.3000E+00
    -21.543  0.0000E+00  0.0000E+00  0.3000E+00  0.3000E+00
    -21.392  0.0000E+00  0.0000E+00  0.3000E+00  0.3000E+00
    -21.241  0.0000E+00  0.0000E+00  0.3000E+00  0.3000E+00
    -21.090  0.0000E+00  0.0000E+00  0.3000E+00  0.3000E+00
    -20.940  0.0000E+00  0.0000E+00  0.3000E+00  0.3000E+00
    -20.789  0.0000E+00  0.0000E+00  0.3000E+00  0.3000E+00
    -20.638  0.0000E+00  0.0000E+00  0.3000E+00  0.3000E+00
    -20.487  0.0000E+00  0.0000E+00  0.3000E+00  0.3000E+00
    -20.336  0.0000E+00  0.0000E+00  0.3000E+00  0.3000E+00
    -20.185  0.0000E+00  0.0000E+00  0.3000E+00  0.3000E+00
    -20.035  0.0000E+00  0.0000E+00  0.3000E+00  0.3000E+00
    -19.884  0.0000E+00  0.0000E+00  0.3000E+00  0.3000E+00
    -19.733  0.0000E+00  0.0000E+00  0.3000E+00  0.3000E+00
    -19.582  0.0000E+00  0.0000E+00  0.3000E+00  0.3000E+00
    -19.431  0.0000E+00  0.0000E+00  0.3000E+00  0.3000E+00
    -19.280  0.0000E+00  0.0000E+00  0.3000E+00  0.3000E+00
    -19.130  0.0000E+00  0.0000E+00  0.3000E+00  0.3000E+00
    -18.979  0.0000E+00  0.0000E+00  0.3000E+00  0.3000E+00
    -18.828  0.0000E+00  0.0000E+00  0.3000E+00  0.3000E+00
    -18.677  0.0000E+00  0.0000E+00  0.3000E+00  0.3000E+00
    -18.526  0.0000E+00  0.0000E+00  0.3000E+00  0.3000E+00
    -18.375  0.0000E+00  0.0000E+00  0.3000E+00  0.3000E+00
    -18.225  0.0000E+00  0.0000E+00  0.3000E+00  0.3000E+00
    -18.074  0.0000E+00  0.0000E+00  0.3000E+00  0.3000E+00
    -17.923  0.0000E+00  0.0000E+00  0.3000E+00  0.3000E+00
    -17.772  0.0000E+00  0.0000E+00  0.3000E+00  0.3000E+00
    -17.621  0.0000E+00  0.0000E+00  0.3000E+00  0.3000E+00
    -17.470  0.0000E+00  0.0000E+00  0.3000E+00  0.3000E+00
    -17.320  0.0000E+00  0.0000E+00  0.3000E+00  0.3000E+00
    -17.169  0.0000E+00  0.0000E+00  0.3000E+00  0.3000E+00
    -17.018  0.0000E+00  0.0000E+00  0.3000E+00  0.3000E+00
    -16.867  0.0000E+00  0.0000E+00  0.3000E+00  0.3000E+00
    -16.716  0.0000E+00  0.0000E+00  0.3000E+00  0.3000E+00
    -16.565  0.0000E+00  0.0000E+00  0.3000E+00  0.3000E+00
    -16.414  0.0000E+00  0.0000E+00  0.3000E+00  0.3000E+00
    -16.264  0.0000E+00  0.0000E+00  0.3000E+00  0.3000E+00
    -16.113  0.0000E+00  0.0000E+00  0.3000E+00  0.3000E+00
    -15.962  0.0000E+00  0.0000E+00  0.3000E+00  0.3000E+00
    -15.811  0.0000E+00  0.0000E+00  0.3000E+00  0.3000E+00
    -15.660  0.0000E+00  0.0000E+00  0.3000E+00  0.3000E+00
    -15.509  0.0000E+00  0.0000E+00  0.3000E+00  0.3000E+00
    -15.359  0.0000E+00  0.0000E+00  0.3000E+00  0.3000E+00
    -15.208  0.0000E+00  0.0000E+00  0.3000E+00  0.3000E+00
    -15.057  0.0000E+00  0.0000E+00  0.3000E+00  0.3000E+00
    -14.906  0.0000E+00  0.0000E+00  0.3000E+00  0.3000E+00
    -14.755  0.0000E+00  0.0000E+00  0.3000E+00  0.3000E+00
    -14.604  0.0000E+00  0.0000E+00  0.3000E+00  0.3000E+00
    -14.454  0.0000E+00  0.0000E+00  0.3000E+00  0.3000E+00
    -14.303  0.0000E+00  0.0000E+00  0.3000E+00  0.3000E+00
    -14.152  0.0000E+00  0.0000E+00  0.3000E+00  0.3000E+00
    -14.001  0.0000E+00  0.0000E+00  0.3000E+00  0.3000E+00
    -13.850  0.0000E+00  0.0000E+00  0.3000E+00  0.3000E+00
    -13.699  0.0000E+00  0.0000E+00  0.3000E+00  0.3000E+00
    -13.549  0.0000E+00  0.0000E+00  0.3000E+00  0.3000E+00
    -13.398  0.0000E+00  0.0000E+00  0.3000E+00  0.3000E+00
    -13.247  0.0000E+00  0.0000E+00  0.3000E+00  0.3000E+00
    -13.096  0.1323E-06  0.1199E-06  0.3000E+00  0.3000E+00
    -12.945  0.1128E+00  0.1100E+00  0.3170E+00  0.3166E+00
    -12.794  0.5645E+00  0.5655E+00  0.4022E+00  0.4019E+00
    -12.644  0.1514E+00  0.1532E+00  0.4250E+00  0.4250E+00
    -12.493  0.2002E-05  0.2134E-05  0.4250E+00  0.4250E+00
    -12.342  0.0000E+00  0.0000E+00  0.4250E+00  0.4250E+00
    -12.191  0.0000E+00  0.0000E+00  0.4250E+00  0.4250E+00
    -12.040  0.0000E+00  0.0000E+00  0.4250E+00  0.4250E+00
    -11.889  0.0000E+00  0.0000E+00  0.4250E+00  0.4250E+00
    -11.739  0.0000E+00  0.0000E+00  0.4250E+00  0.4250E+00
    -11.588  0.0000E+00  0.0000E+00  0.4250E+00  0.4250E+00
    -11.437  0.0000E+00  0.0000E+00  0.4250E+00  0.4250E+00
    -11.286  0.0000E+00  0.0000E+00  0.4250E+00  0.4250E+00
    -11.135  0.0000E+00  0.0000E+00  0.4250E+00  0.4250E+00
    -10.984  0.0000E+00  0.0000E+00  0.4250E+00  0.4250E+00
    -10.834  0.0000E+00  0.0000E+00  0.4250E+00  0.4250E+00
    -10.683  0.0000E+00  0.0000E+00  0.4250E+00  0.4250E+00
    -10.532  0.0000E+00  0.0000E+00  0.4250E+00  0.4250E+00
    -10.381  0.5048E-19  0.1262E-19  0.4250E+00  0.4250E+00
    -10.230  0.1351E-07  0.8211E-08  0.4250E+00  0.4250E+00
    -10.079  0.9188E-03  0.7932E-03  0.4251E+00  0.4251E+00
     -9.929  0.1219E-01  0.1192E-01  0.4270E+00  0.4269E+00
     -9.778  0.2280E-01  0.2266E-01  0.4304E+00  0.4303E+00
     -9.627  0.3334E-01  0.3316E-01  0.4354E+00  0.4353E+00
     -9.476  0.4709E-01  0.4694E-01  0.4426E+00  0.4424E+00
     -9.325  0.4121E-01  0.4153E-01  0.4488E+00  0.4487E+00
     -9.174  0.3976E-01  0.3924E-01  0.4548E+00  0.4546E+00
     -9.023  0.8062E-01  0.8050E-01  0.4669E+00  0.4667E+00
     -8.873  0.1111E+00  0.1108E+00  0.4837E+00  0.4835E+00
     -8.722  0.1623E+00  0.1623E+00  0.5082E+00  0.5079E+00
     -8.571  0.1625E+00  0.1617E+00  0.5327E+00  0.5323E+00
     -8.420  0.3101E+00  0.3113E+00  0.5794E+00  0.5793E+00
     -8.269  0.2991E+00  0.3001E+00  0.6246E+00  0.6246E+00
     -8.118  0.2964E-02  0.2973E-02  0.6250E+00  0.6250E+00
     -7.968  0.6783E-10  0.6785E-10  0.6250E+00  0.6250E+00
     -7.817  0.0000E+00  0.0000E+00  0.6250E+00  0.6250E+00
     -7.666  0.0000E+00  0.0000E+00  0.6250E+00  0.6250E+00
     -7.515  0.0000E+00  0.0000E+00  0.6250E+00  0.6250E+00
     -7.364  0.0000E+00  0.0000E+00  0.6250E+00  0.6250E+00
     -7.213  0.0000E+00  0.0000E+00  0.6250E+00  0.6250E+00
     -7.063  0.0000E+00  0.0000E+00  0.6250E+00  0.6250E+00
     -6.912  0.0000E+00  0.0000E+00  0.6250E+00  0.6250E+00
     -6.761  0.0000E+00  0.0000E+00  0.6250E+00  0.6250E+00
     -6.610  0.0000E+00  0.0000E+00  0.6250E+00  0.6250E+00
     -6.459  0.0000E+00  0.0000E+00  0.6250E+00  0.6250E+00
     -6.308  0.0000E+00  0.0000E+00  0.6250E+00  0.6250E+00
     -6.158  0.0000E+00  0.0000E+00  0.6250E+00  0.6250E+00
     -6.007  0.0000E+00  0.0000E+00  0.6250E+00  0.6250E+00
     -5.856  0.0000E+00  0.0000E+00  0.6250E+00  0.6250E+00
     -5.705  0.0000E+00  0.0000E+00  0.6250E+00  0.6250E+00
     -5.554  0.0000E+00  0.0000E+00  0.6250E+00  0.6250E+00
     -5.403  0.0000E+00  0.0000E+00  0.6250E+00  0.6250E+00
     -5.253  0.0000E+00  0.0000E+00  0.6250E+00  0.6250E+00
     -5.102  0.0000E+00  0.0000E+00  0.6250E+00  0.6250E+00
     -4.951  0.0000E+00  0.0000E+00  0.6250E+00  0.6250E+00
     -4.800  0.0000E+00  0.0000E+00  0.6250E+00  0.6250E+00
     -4.649  0.0000E+00  0.0000E+00  0.6250E+00  0.6250E+00
     -4.498  0.0000E+00  0.0000E+00  0.6250E+00  0.6250E+00
     -4.348  0.0000E+00  0.0000E+00  0.6250E+00  0.6250E+00
     -4.197  0.0000E+00  0.0000E+00  0.6250E+00  0.6250E+00
     -4.046  0.0000E+00  0.0000E+00  0.6250E+00  0.6250E+00
     -3.895  0.0000E+00  0.0000E+00  0.6250E+00  0.6250E+00
     -3.744  0.0000E+00  0.0000E+00  0.6250E+00  0.6250E+00
     -3.593  0.3324E-14  0.3547E-15  0.6250E+00  0.6250E+00
     -3.443  0.1953E-05  0.7757E-06  0.6250E+00  0.6250E+00
     -3.292  0.1196E-02  0.8847E-03  0.6252E+00  0.6251E+00
     -3.141  0.4932E-02  0.4670E-02  0.6259E+00  0.6258E+00
     -2.990  0.8268E-02  0.8481E-02  0.6272E+00  0.6271E+00
     -2.839  0.1459E-01  0.1406E-01  0.6294E+00  0.6292E+00
     -2.688  0.1460E-01  0.1418E-01  0.6316E+00  0.6314E+00
     -2.538  0.2871E-01  0.2855E-01  0.6359E+00  0.6357E+00
     -2.387  0.3848E-01  0.3809E-01  0.6417E+00  0.6414E+00
     -2.236  0.4020E-01  0.4014E-01  0.6478E+00  0.6475E+00
     -2.085  0.1477E-01  0.1667E-01  0.6500E+00  0.6500E+00
     -1.934  0.4319E-05  0.8108E-05  0.6500E+00  0.6500E+00
     -1.783  0.1571E-05  0.2716E-06  0.6500E+00  0.6500E+00
     -1.632  0.3256E-02  0.1929E-02  0.6505E+00  0.6503E+00
     -1.482  0.1932E-01  0.1710E-01  0.6534E+00  0.6529E+00
     -1.331  0.3800E-01  0.3447E-01  0.6591E+00  0.6581E+00
     -1.180  0.1388E+00  0.1213E+00  0.6801E+00  0.6764E+00
     -1.029  0.1181E+00  0.1298E+00  0.6979E+00  0.6959E+00
     -0.878  0.1172E+00  0.1161E+00  0.7156E+00  0.7135E+00
     -0.727  0.9181E-01  0.9439E-01  0.7294E+00  0.7277E+00
     -0.577  0.1073E+00  0.1107E+00  0.7456E+00  0.7444E+00
     -0.426  0.4265E-01  0.4561E-01  0.7520E+00  0.7513E+00
     -0.275  0.9308E-01  0.8173E-01  0.7661E+00  0.7636E+00
     -0.124  0.1761E+00  0.1814E+00  0.7926E+00  0.7910E+00
      0.027  0.1436E+00  0.1402E+00  0.8143E+00  0.8121E+00
      0.178  0.4680E-01  0.5941E-01  0.8214E+00  0.8211E+00
      0.328  0.6660E-01  0.6193E-01  0.8314E+00  0.8304E+00
      0.479  0.8167E-01  0.7492E-01  0.8437E+00  0.8417E+00
      0.630  0.1315E+00  0.1309E+00  0.8636E+00  0.8614E+00
      0.781  0.1297E+00  0.1358E+00  0.8831E+00  0.8819E+00
      0.932  0.1118E+00  0.1039E+00  0.9000E+00  0.8976E+00
      1.083  0.1607E+00  0.1602E+00  0.9242E+00  0.9218E+00
      1.233  0.1689E+00  0.1695E+00  0.9497E+00  0.9473E+00
      1.384  0.2143E+00  0.2043E+00  0.9820E+00  0.9781E+00
      1.535  0.2741E+00  0.2686E+00  0.1023E+01  0.1019E+01
      1.686  0.2602E+00  0.2714E+00  0.1063E+01  0.1060E+01
      1.837  0.1963E+00  0.2038E+00  0.1092E+01  0.1090E+01
      1.988  0.4593E-01  0.5183E-01  0.1099E+01  0.1098E+01
      2.138  0.1074E+00  0.1046E+00  0.1115E+01  0.1114E+01
      2.289  0.1519E+00  0.1459E+00  0.1138E+01  0.1136E+01
      2.440  0.1851E+00  0.1887E+00  0.1166E+01  0.1164E+01
      2.591  0.1144E+00  0.1161E+00  0.1183E+01  0.1182E+01
      2.742  0.1152E+00  0.1183E+00  0.1201E+01  0.1200E+01
      2.893  0.7990E-01  0.7873E-01  0.1213E+01  0.1212E+01
      3.043  0.5191E-01  0.5399E-01  0.1221E+01  0.1220E+01
      3.194  0.6820E-01  0.5427E-01  0.1231E+01  0.1228E+01
      3.345  0.6988E-01  0.6899E-01  0.1242E+01  0.1238E+01
      3.496  0.4971E-01  0.5641E-01  0.1249E+01  0.1247E+01
      3.647  0.6747E-02  0.2042E-01  0.1250E+01  0.1250E+01
      3.798  0.7404E-02  0.2669E-02  0.1251E+01  0.1250E+01
      3.948  0.3654E-01  0.1914E-01  0.1257E+01  0.1253E+01
      4.099  0.1523E+00  0.8111E-01  0.1280E+01  0.1266E+01
      4.250  0.1220E+00  0.1657E+00  0.1298E+01  0.1290E+01
      4.401  0.1310E-01  0.6273E-01  0.1300E+01  0.1300E+01
      4.552  0.5623E-03  0.3265E-03  0.1300E+01  0.1300E+01
      4.703  0.1777E-01  0.5752E-02  0.1303E+01  0.1301E+01
      4.853  0.6761E-01  0.3590E-01  0.1313E+01  0.1306E+01
      5.004  0.1142E+00  0.1027E+00  0.1330E+01  0.1322E+01
      5.155  0.2509E+00  0.1742E+00  0.1368E+01  0.1348E+01
      5.306  0.5564E-01  0.1815E+00  0.1376E+01  0.1375E+01
      5.457  0.1492E-01  0.1965E-01  0.1379E+01  0.1378E+01
      5.608  0.2698E-01  0.2688E-01  0.1383E+01  0.1382E+01
      5.759  0.1824E-01  0.1522E-01  0.1386E+01  0.1385E+01
      5.909  0.2750E-01  0.2823E-01  0.1390E+01  0.1389E+01
      6.060  0.2093E-01  0.1907E-01  0.1393E+01  0.1392E+01
      6.211  0.3120E-01  0.3240E-01  0.1398E+01  0.1397E+01
      6.362  0.1648E-01  0.2121E-01  0.1400E+01  0.1400E+01
      6.513  0.2717E-04  0.2515E-03  0.1400E+01  0.1400E+01
      6.664  0.7944E-03  0.6354E-04  0.1400E+01  0.1400E+01
      6.814  0.1928E+00  0.1035E+00  0.1429E+01  0.1416E+01
      6.965  0.2124E+00  0.2658E+00  0.1461E+01  0.1456E+01
      7.116  0.1838E+00  0.1599E+00  0.1489E+01  0.1480E+01
      7.267  0.1924E+00  0.2048E+00  0.1518E+01  0.1511E+01
      7.418  0.2442E+00  0.1797E+00  0.1555E+01  0.1538E+01
      7.569  0.1950E+00  0.2463E+00  0.1584E+01  0.1575E+01
      7.719  0.9475E-01  0.1360E+00  0.1599E+01  0.1595E+01
      7.870  0.1097E+00  0.8560E-01  0.1615E+01  0.1608E+01
      8.021  0.1787E+00  0.1566E+00  0.1642E+01  0.1632E+01
      8.172  0.1461E+00  0.1750E+00  0.1664E+01  0.1658E+01
      8.323  0.1735E+00  0.1758E+00  0.1690E+01  0.1685E+01
      8.474  0.1089E+00  0.1300E+00  0.1707E+01  0.1705E+01
      8.624  0.6487E-01  0.5898E-01  0.1716E+01  0.1713E+01
      8.775  0.1397E+00  0.1279E+00  0.1737E+01  0.1733E+01
      8.926  0.7498E-01  0.9367E-01  0.1749E+01  0.1747E+01
      9.077  0.1154E+00  0.1164E+00  0.1766E+01  0.1764E+01
      9.228  0.7341E-01  0.7380E-01  0.1777E+01  0.1776E+01
      9.379  0.4091E-01  0.4573E-01  0.1783E+01  0.1782E+01
      9.529  0.4488E-01  0.4640E-01  0.1790E+01  0.1789E+01
      9.680  0.1768E-01  0.1809E-01  0.1793E+01  0.1792E+01
      9.831  0.2432E-01  0.2732E-01  0.1797E+01  0.1796E+01
      9.982  0.1537E-01  0.1376E-01  0.1799E+01  0.1798E+01
     10.133  0.7392E-02  0.1079E-01  0.1800E+01  0.1800E+01
     10.284  0.2142E-05  0.1827E-04  0.1800E+01  0.1800E+01
     10.434  0.0000E+00  0.7983E-14  0.1800E+01  0.1800E+01
     10.585  0.0000E+00  0.0000E+00  0.1800E+01  0.1800E+01
     10.736  0.0000E+00  0.0000E+00  0.1800E+01  0.1800E+01
     10.887  0.0000E+00  0.0000E+00  0.1800E+01  0.1800E+01
     11.038  0.0000E+00  0.0000E+00  0.1800E+01  0.1800E+01
     11.189  0.0000E+00  0.0000E+00  0.1800E+01  0.1800E+01
     11.339  0.0000E+00  0.0000E+00  0.1800E+01  0.1800E+01
     11.490  0.0000E+00  0.0000E+00  0.1800E+01  0.1800E+01
     11.641  0.0000E+00  0.0000E+00  0.1800E+01  0.1800E+01
     11.792  0.0000E+00  0.0000E+00  0.1800E+01  0.1800E+01
     11.943  0.0000E+00  0.0000E+00  0.1800E+01  0.1800E+01
     12.094  0.0000E+00  0.0000E+00  0.1800E+01  0.1800E+01
