       N       E                     dE             d eps       ncg     rms          rms(c)
DAV:   1     0.947452838224E+03    0.94745E+03   -0.49266E+04 10932   0.150E+03
DAV:   2     0.196033073934E+02   -0.92785E+03   -0.88499E+03 11124   0.412E+02
DAV:   3    -0.790612521057E+02   -0.98665E+02   -0.95891E+02 12012   0.116E+02
DAV:   4    -0.832725599607E+02   -0.42113E+01   -0.41617E+01 12600   0.244E+01
DAV:   5    -0.833712924357E+02   -0.98732E-01   -0.98357E-01 12852   0.360E+00    0.303E+01
DAV:   6    -0.820951794992E+02    0.12761E+01   -0.12220E+00 13368   0.453E+00    0.253E+01
DAV:   7    -0.807456066584E+02    0.13496E+01   -0.11452E+01 12972   0.136E+01    0.993E+00
DAV:   8    -0.808333438069E+02   -0.87737E-01   -0.24247E+00 12252   0.554E+00    0.625E+00
DAV:   9    -0.808419159612E+02   -0.85722E-02   -0.62098E-01 12684   0.310E+00    0.350E+00
DAV:  10    -0.808455896657E+02   -0.36737E-02   -0.24221E-01 12720   0.213E+00    0.139E+00
DAV:  11    -0.808269906842E+02    0.18599E-01   -0.11121E-01 12216   0.120E+00    0.867E-01
DAV:  12    -0.808291594779E+02   -0.21688E-02   -0.49096E-02 12804   0.827E-01    0.401E-01
DAV:  13    -0.808297353725E+02   -0.57589E-03   -0.54698E-03 12264   0.260E-01    0.272E-01
DAV:  14    -0.808310640629E+02   -0.13287E-02   -0.26673E-03 12672   0.196E-01    0.143E-01
DAV:  15    -0.808313773281E+02   -0.31327E-03   -0.58108E-04 11244   0.799E-02    0.961E-02
DAV:  16    -0.808314472736E+02   -0.69945E-04   -0.32588E-04 10116   0.702E-02
   1 F= -.80831447E+02 E0= -.80826456E+02  d E =-.808314E+02  mag=     0.4066
       N       E                     dE             d eps       ncg     rms          rms(c)
DAV:   1    -0.808315000582E+02   -0.12273E-03   -0.83640E-04 11544   0.144E-01    0.479E-02
DAV:   2    -0.808315089189E+02   -0.88607E-05   -0.63545E-05  7332   0.358E-02    0.402E-02
DAV:   3    -0.808315147580E+02   -0.58390E-05   -0.33864E-05  7188   0.322E-02    0.210E-02
DAV:   4    -0.808315181773E+02   -0.34193E-05   -0.24181E-05  7092   0.192E-02    0.114E-02
DAV:   5    -0.808315188189E+02   -0.64158E-06   -0.41369E-06  6912   0.106E-02    0.980E-03
DAV:   6    -0.808315204148E+02   -0.15959E-05   -0.28510E-06  6732   0.693E-03
   2 F= -.80831520E+02 E0= -.80826481E+02  d E =-.731412E-04  mag=     0.3754
       N       E                     dE             d eps       ncg     rms          rms(c)
DAV:   1    -0.808315577016E+02   -0.38883E-04   -0.87859E-04 11100   0.152E-01    0.309E-02
DAV:   2    -0.808315598396E+02   -0.21380E-05   -0.62485E-05  6516   0.334E-02    0.258E-02
DAV:   3    -0.808315544914E+02    0.53482E-05   -0.10491E-05  6396   0.176E-02    0.153E-02
DAV:   4    -0.808315518857E+02    0.26057E-05   -0.10865E-05  6288   0.173E-02    0.482E-03
DAV:   5    -0.808315520153E+02   -0.12961E-06   -0.23734E-06  6204   0.856E-03    0.434E-03
DAV:   6    -0.808315521275E+02   -0.11215E-06   -0.69310E-07  6096   0.356E-03
   3 F= -.80831552E+02 E0= -.80826485E+02  d E =-.104854E-03  mag=     0.3660
       N       E                     dE             d eps       ncg     rms          rms(c)
DAV:   1    -0.808315998027E+02   -0.47787E-04   -0.34764E-03 10716   0.301E-01    0.626E-02
DAV:   2    -0.808316084295E+02   -0.86268E-05   -0.26999E-04  8496   0.666E-02    0.523E-02
DAV:   3    -0.808315816258E+02    0.26804E-04   -0.27061E-05  6000   0.295E-02    0.306E-02
DAV:   4    -0.808315669153E+02    0.14711E-04   -0.41186E-05  5940   0.341E-02    0.673E-03
DAV:   5    -0.808315661563E+02    0.75897E-06   -0.76209E-06  5856   0.151E-02    0.571E-03
DAV:   6    -0.808315657103E+02    0.44595E-06   -0.22772E-06  5724   0.670E-03
   4 F= -.80831566E+02 E0= -.80826481E+02  d E =-.118437E-03  mag=     0.3602
       N       E                     dE             d eps       ncg     rms          rms(c)
DAV:   1    -0.808315719419E+02   -0.57857E-05   -0.68935E-04 10500   0.131E-01    0.290E-02
DAV:   2    -0.808315731143E+02   -0.11724E-05   -0.49083E-05  5592   0.301E-02    0.243E-02
DAV:   3    -0.808315681234E+02    0.49909E-05   -0.90293E-06  5580   0.168E-02    0.134E-02
DAV:   4    -0.808315661819E+02    0.19415E-05   -0.83497E-06  5568   0.151E-02    0.261E-03
DAV:   5    -0.808315663636E+02   -0.18171E-06   -0.16705E-06  5556   0.719E-03    0.219E-03
DAV:   6    -0.808315664575E+02   -0.93874E-07   -0.39440E-07  5544   0.278E-03
   5 F= -.80831566E+02 E0= -.80826471E+02  d E =-.119184E-03  mag=     0.3572
       N       E                     dE             d eps       ncg     rms          rms(c)
DAV:   1    -0.808315676340E+02   -0.12704E-05   -0.80371E-05  5532   0.474E-02    0.101E-02
DAV:   2    -0.808315685193E+02   -0.88527E-06   -0.12871E-05  5544   0.163E-02    0.775E-03
DAV:   3    -0.808315682324E+02    0.28687E-06   -0.17483E-06  5508   0.594E-03    0.564E-03
DAV:   4    -0.808315678661E+02    0.36631E-06   -0.20085E-06  5508   0.866E-03    0.114E-03
DAV:   5    -0.808315678576E+02    0.85547E-08   -0.33193E-07  5508   0.330E-03    0.105E-03
DAV:   6    -0.808315678377E+02    0.19825E-07   -0.82805E-08  5472   0.128E-03
   6 F= -.80831568E+02 E0= -.80826468E+02  d E =-.120564E-03  mag=     0.3552
       N       E                     dE             d eps       ncg     rms          rms(c)
DAV:   1    -0.808315770145E+02   -0.91569E-05   -0.30773E-04  8040   0.820E-02    0.968E-03
DAV:   2    -0.808315790815E+02   -0.20670E-05   -0.30674E-05  5472   0.246E-02    0.738E-03
DAV:   3    -0.808315787337E+02    0.34778E-06   -0.39803E-06  5460   0.939E-03    0.557E-03
DAV:   4    -0.808315782367E+02    0.49705E-06   -0.17407E-06  5472   0.775E-03    0.292E-03
DAV:   5    -0.808315781562E+02    0.80476E-07   -0.71014E-07  5460   0.384E-03    0.173E-03
DAV:   6    -0.808315781879E+02   -0.31670E-07   -0.17242E-07  5472   0.182E-03
   7 F= -.80831578E+02 E0= -.80826475E+02  d E =-.103501E-04  mag=     0.3534
       N       E                     dE             d eps       ncg     rms          rms(c)
DAV:   1    -0.808315932923E+02   -0.15136E-04   -0.27887E-03 10236   0.246E-01    0.295E-02
DAV:   2    -0.808316114302E+02   -0.18138E-04   -0.26929E-04  8088   0.619E-02    0.235E-02
DAV:   3    -0.808316045663E+02    0.68639E-05   -0.11205E-05  5484   0.174E-02    0.164E-02
DAV:   4    -0.808315991058E+02    0.54605E-05   -0.10089E-05  5436   0.181E-02    0.804E-03
DAV:   5    -0.808315979325E+02    0.11733E-05   -0.55966E-06  5424   0.105E-02    0.495E-03
DAV:   6    -0.808315980796E+02   -0.14708E-06   -0.94637E-07  5400   0.473E-03
   8 F= -.80831598E+02 E0= -.80826495E+02  d E =-.302419E-04  mag=     0.3508
       N       E                     dE             d eps       ncg     rms          rms(c)
DAV:   1    -0.808316001388E+02   -0.22063E-05   -0.53332E-04  9024   0.108E-01    0.130E-02
DAV:   2    -0.808316033461E+02   -0.32073E-05   -0.48981E-05  5604   0.294E-02    0.980E-03
DAV:   3    -0.808316025712E+02    0.77483E-06   -0.63190E-06  5400   0.119E-02    0.733E-03
DAV:   4    -0.808316018052E+02    0.76598E-06   -0.29370E-06  5400   0.930E-03    0.434E-03
DAV:   5    -0.808316017110E+02    0.94247E-07   -0.11344E-06  5400   0.494E-03    0.299E-03
DAV:   6    -0.808316017871E+02   -0.76072E-07   -0.33423E-07  5400   0.246E-03
   9 F= -.80831602E+02 E0= -.80826496E+02  d E =-.339493E-04  mag=     0.3487
       N       E                     dE             d eps       ncg     rms          rms(c)
DAV:   1    -0.808316017057E+02    0.53315E-08   -0.50727E-05  5388   0.347E-02    0.483E-03
DAV:   2    -0.808316022894E+02   -0.58375E-06   -0.76911E-06  5304   0.117E-02    0.341E-03
DAV:   3    -0.808316023162E+02   -0.26834E-07   -0.11189E-06  5292   0.432E-03    0.273E-03
DAV:   4    -0.808316023129E+02    0.33651E-08   -0.46915E-07  5292   0.367E-03    0.174E-03
DAV:   5    -0.808316023661E+02   -0.53175E-07   -0.17581E-07  5292   0.179E-03    0.144E-03
DAV:   6    -0.808316024197E+02   -0.53655E-07   -0.59512E-08  5292   0.101E-03
  10 F= -.80831602E+02 E0= -.80826493E+02  d E =-.345820E-04  mag=     0.3470
       N       E                     dE             d eps       ncg     rms          rms(c)
DAV:   1    -0.808316024912E+02   -0.12518E-06   -0.19293E-06  5292   0.672E-03    0.978E-04
DAV:   2    -0.808316025209E+02   -0.29710E-07   -0.31481E-07  5292   0.243E-03    0.795E-04
DAV:   3    -0.808316025406E+02   -0.19631E-07   -0.57506E-08  5292   0.895E-04    0.726E-04
DAV:   4    -0.808316025616E+02   -0.21008E-07   -0.23626E-08  5292   0.784E-04    0.591E-04
DAV:   5    -0.808316025876E+02   -0.26002E-07   -0.16475E-08  5280   0.516E-04    0.499E-04
DAV:   6    -0.808316026076E+02   -0.19985E-07   -0.89262E-09  5292   0.367E-04
  11 F= -.80831603E+02 E0= -.80826489E+02  d E =-.347698E-04  mag=     0.3459
       N       E                     dE             d eps       ncg     rms          rms(c)
DAV:   1    -0.808316025173E+02    0.70257E-07   -0.77831E-06  5280   0.134E-02    0.169E-03
DAV:   2    -0.808316026012E+02   -0.83901E-07   -0.11653E-06  5220   0.446E-03    0.115E-03
DAV:   3    -0.808316026098E+02   -0.85274E-08   -0.15003E-07  5220   0.155E-03    0.935E-04
DAV:   4    -0.808316026088E+02    0.93496E-09   -0.51959E-08  5220   0.122E-03    0.610E-04
DAV:   5    -0.808316026175E+02   -0.86711E-08   -0.22168E-08  5220   0.646E-04    0.447E-04
DAV:   6    -0.808316026286E+02   -0.11125E-07   -0.71106E-09  5220   0.362E-04
  12 F= -.80831603E+02 E0= -.80826488E+02  d E =-.347909E-04  mag=     0.3453
       N       E                     dE             d eps       ncg     rms          rms(c)
DAV:   1    -0.808316026494E+02   -0.31952E-07   -0.17131E-06  5220   0.634E-03    0.937E-04
DAV:   2    -0.808316026762E+02   -0.26757E-07   -0.25221E-07  5220   0.209E-03    0.694E-04
DAV:   3    -0.808316026750E+02    0.11514E-08   -0.33114E-08  5220   0.763E-04    0.551E-04
DAV:   4    -0.808316026741E+02    0.98407E-09   -0.14054E-08  5220   0.655E-04    0.345E-04
DAV:   5    -0.808316026719E+02    0.22083E-08   -0.50126E-09  5220   0.304E-04    0.283E-04
DAV:   6    -0.808316026697E+02    0.21937E-08   -0.15924E-09  5220   0.157E-04
  13 F= -.80831603E+02 E0= -.80826487E+02  d E =-.348319E-04  mag=     0.3450
       N       E                     dE             d eps       ncg     rms          rms(c)
DAV:   1    -0.808316026539E+02    0.17935E-07   -0.44570E-07  5196   0.322E-03    0.505E-04
DAV:   2    -0.808316026550E+02   -0.10677E-08   -0.65257E-08  5148   0.107E-03    0.395E-04
DAV:   3    -0.808316026553E+02   -0.32014E-09   -0.91178E-09  5148   0.399E-04    0.338E-04
DAV:   4    -0.808316026545E+02    0.80217E-09   -0.38465E-09  5148   0.334E-04    0.269E-04
DAV:   5    -0.808316026561E+02   -0.15625E-08   -0.15109E-09  5148   0.165E-04    0.251E-04
DAV:   6    -0.808316026578E+02   -0.17135E-08   -0.54706E-10  5148   0.921E-05
  14 F= -.80831603E+02 E0= -.80826486E+02  d E =-.348200E-04  mag=     0.3447
       N       E                     dE             d eps       ncg     rms          rms(c)
DAV:   1    -0.808316034892E+02   -0.83317E-06   -0.35333E-05  5148   0.332E-02    0.776E-03
DAV:   2    -0.808316037223E+02   -0.23305E-06   -0.52113E-06  5112   0.107E-02    0.609E-03
DAV:   3    -0.808316034750E+02    0.24724E-06   -0.69030E-07  5112   0.382E-03    0.408E-03
DAV:   4    -0.808316033563E+02    0.11878E-06   -0.10653E-06  5112   0.631E-03    0.919E-04
DAV:   5    -0.808316033671E+02   -0.10878E-07   -0.17046E-07  5112   0.266E-03    0.686E-04
DAV:   6    -0.808316034067E+02   -0.39508E-07   -0.39725E-08  5112   0.784E-04
  15 F= -.80831603E+02 E0= -.80826486E+02  d E =-.748876E-06  mag=     0.3445
