 vasp.5.4.1 24Jun15 (build Nov 23 2015 09:58:10) complex                        
  
 executed on             LinuxIFC date 2020.05.21  18:41:32
 running on   72 total cores
 distrk:  each k-point on   72 cores,    1 groups
 distr:  one band on NCORES_PER_BAND=  12 cores,    6 groups


--------------------------------------------------------------------------------------------------------


 INCAR:
 POTCAR:    PAW_PBE Ta_pv 07Sep2000               
 POTCAR:    PAW_PBE Ga_d 06Jul2010                
 POTCAR:    PAW_PBE Se 06Sep2000                  
 POTCAR:    PAW_PBE Ta_pv 07Sep2000               
   VRHFIN =Ta:  5p6s5d                                                          
   LEXCH  = PE                                                                  
   EATOM  =  1047.1984 eV,   76.9669 Ry                                         
                                                                                
   TITEL  = PAW_PBE Ta_pv 07Sep2000                                             
   LULTRA =        F    use ultrasoft PP ?                                      
   IUNSCR =        1    unscreen: 0-lin 1-nonlin 2-no                           
   RPACOR =    2.330    partial core radius                                     
   POMASS =  180.948; ZVAL   =   11.000    mass and valenz                      
   RCORE  =    2.500    outmost cutoff radius                                   
   RWIGS  =    2.840; RWIGS  =    1.503    wigner-seitz radius (au A)           
   ENMAX  =  223.667; ENMIN  =  167.750 eV                                      
   RCLOC  =    2.205    cutoff for local pot                                    
   LCOR   =        T    correct aug charges                                     
   LPAW   =        T    paw PP                                                  
   EAUG   =  377.421                                                            
   DEXC   =    0.000                                                            
   RMAX   =    2.551    core radius for proj-oper                               
   RAUG   =    1.300    factor for augmentation sphere                          
   RDEP   =    2.526    radius for radial grids                                 
   RDEPT  =    2.132    core radius for aug-charge                              
                                                                                
   Atomic configuration                                                         
   15 entries                                                                   
     n  l   j            E        occ.                                          
     1  0  0.50    -67341.2801   2.0000                                         
     2  0  0.50    -11566.9369   2.0000                                         
     2  1  1.50    -10134.1175   6.0000                                         
     3  0  0.50     -2648.5614   2.0000                                         
     3  1  1.50     -2222.6006   6.0000                                         
     3  2  2.50     -1726.3114  10.0000                                         
     4  0  0.50      -538.6957   2.0000                                         
     4  1  1.50      -399.0125   6.0000                                         
     4  2  2.50      -220.3955  10.0000                                         
     4  3  3.50       -23.0371  14.0000                                         
     5  0  0.50       -71.2900   2.0000                                         
     5  1  1.50       -37.8224   6.0000                                         
     5  2  2.50        -2.6455   4.0000                                         
     6  0  0.50        -4.9623   1.0000                                         
     5  3  2.50        -1.3606   0.0000                                         
   Description                                                                  
     l       E           TYP  RCUT    TYP  RCUT                                 
     1    -37.8224449     23  2.500                                             
     1      1.3605826     23  2.500                                             
     2     -2.6454718     23  2.500                                             
     2     -0.6258570     23  2.500                                             
     0     -4.9622674     23  2.500                                             
     0      4.7531427     23  2.500                                             
  local pseudopotential read in
  partial core-charges read in
  partial kinetic energy density read in
  atomic valenz-charges read in
  non local Contribution for L=           1  read in
    real space projection operators read in
  non local Contribution for L=           1  read in
    real space projection operators read in
  non local Contribution for L=           2  read in
    real space projection operators read in
  non local Contribution for L=           2  read in
    real space projection operators read in
  non local Contribution for L=           0  read in
    real space projection operators read in
  non local Contribution for L=           0  read in
    real space projection operators read in
    PAW grid and wavefunctions read in
 
   number of l-projection  operators is LMAX  =           6
   number of lm-projection operators is LMMAX =          18
 
 POTCAR:    PAW_PBE Ga_d 06Jul2010                
   VRHFIN =Ga: s2p1                                                             
   LEXCH  = PE                                                                  
   EATOM  =  2148.8298 eV,  157.9345 Ry                                         
                                                                                
   TITEL  = PAW_PBE Ga_d 06Jul2010                                              
   LULTRA =        F    use ultrasoft PP ?                                      
   IUNSCR =        1    unscreen: 0-lin 1-nonlin 2-no                           
   RPACOR =    1.700    partial core radius                                     
   POMASS =   69.723; ZVAL   =   13.000    mass and valenz                      
   RCORE  =    2.300    outmost cutoff radius                                   
   RWIGS  =    2.300; RWIGS  =    1.217    wigner-seitz radius (au A)           
   ENMAX  =  282.691; ENMIN  =  212.018 eV                                      
   ICORE  =        3    local potential                                         
   LCOR   =        T    correct aug charges                                     
   LPAW   =        T    paw PP                                                  
   EAUG   =  490.690                                                            
   DEXC   =    0.000                                                            
   RMAX   =    2.341    core radius for proj-oper                               
   RAUG   =    1.300    factor for augmentation sphere                          
   RDEP   =    2.413    radius for radial grids                                 
   RDEPT  =    1.856    core radius for aug-charge                              
                                                                                
   Atomic configuration                                                         
    9 entries                                                                   
     n  l   j            E        occ.                                          
     1  0  0.50    -10228.7831   2.0000                                         
     2  0  0.50     -1262.1604   2.0000                                         
     2  1  1.50     -1098.6333   6.0000                                         
     3  0  0.50      -148.1110   2.0000                                         
     3  1  1.50       -98.8436   6.0000                                         
     3  2  2.50       -19.1549  10.0000                                         
     4  0  0.50        -8.9483   2.0000                                         
     4  1  0.50        -2.5791   1.0000                                         
     4  3  2.50        -2.7416   0.0000                                         
   Description                                                                  
     l       E           TYP  RCUT    TYP  RCUT                                 
     2    -19.1549037     23  2.300                                             
     2     -5.4423304     23  2.300                                             
     0     -8.9483111     23  2.300                                             
     0     68.0291300     23  2.300                                             
     1     -2.5790802     23  2.100                                             
     1     81.6349560     23  2.300                                             
     3      6.8029130     23  2.300                                             
  local pseudopotential read in
  partial core-charges read in
  partial kinetic energy density read in
  atomic valenz-charges read in
  non local Contribution for L=           2  read in
    real space projection operators read in
  non local Contribution for L=           2  read in
    real space projection operators read in
  non local Contribution for L=           0  read in
    real space projection operators read in
  non local Contribution for L=           0  read in
    real space projection operators read in
  non local Contribution for L=           1  read in
    real space projection operators read in
  non local Contribution for L=           1  read in
    real space projection operators read in
    PAW grid and wavefunctions read in
 
   number of l-projection  operators is LMAX  =           6
   number of lm-projection operators is LMMAX =          18
 
 POTCAR:    PAW_PBE Se 06Sep2000                  
   VRHFIN =Se: s2p4                                                             
   LEXCH  = PE                                                                  
   EATOM  =   257.1286 eV,   18.8984 Ry                                         
                                                                                
   TITEL  = PAW_PBE Se 06Sep2000                                                
   LULTRA =        F    use ultrasoft PP ?                                      
   IUNSCR =        1    unscreen: 0-lin 1-nonlin 2-no                           
   RPACOR =    1.900    partial core radius                                     
   POMASS =   78.960; ZVAL   =    6.000    mass and valenz                      
   RCORE  =    2.100    outmost cutoff radius                                   
   RWIGS  =    2.200; RWIGS  =    1.164    wigner-seitz radius (au A)           
   ENMAX  =  211.555; ENMIN  =  158.666 eV                                      
   ICORE  =        3    local potential                                         
   LCOR   =        T    correct aug charges                                     
   LPAW   =        T    paw PP                                                  
   EAUG   =  446.842                                                            
   DEXC   =    0.000                                                            
   RMAX   =    2.147    core radius for proj-oper                               
   RAUG   =    1.300    factor for augmentation sphere                          
   RDEP   =    2.177    radius for radial grids                                 
   RDEPT  =    1.928    core radius for aug-charge                              
                                                                                
   Atomic configuration                                                         
   10 entries                                                                   
     n  l   j            E        occ.                                          
     1  0  0.50    -12503.4787   2.0000                                         
     2  0  0.50     -1606.9547   2.0000                                         
     2  1  1.50     -1413.3140   6.0000                                         
     3  0  0.50      -213.4885   2.0000                                         
     3  1  1.50      -152.9538   6.0000                                         
     3  2  2.50       -53.1221  10.0000                                         
     4  0  0.50       -17.2865   2.0000                                         
     4  1  0.50        -6.5110   4.0000                                         
     4  2  2.50        -6.8029   0.0000                                         
     4  3  2.50        -6.8029   0.0000                                         
   Description                                                                  
     l       E           TYP  RCUT    TYP  RCUT                                 
     0    -17.2865377     23  2.100                                             
     0    -15.3094411     23  2.100                                             
     1     -6.5110275     23  2.100                                             
     1     -0.0695192     23  2.100                                             
     2     -6.8029130     23  2.100                                             
     3     -1.3605826      7  2.100                                             
  local pseudopotential read in
  partial core-charges read in
  partial kinetic energy density read in
  atomic valenz-charges read in
  non local Contribution for L=           0  read in
    real space projection operators read in
  non local Contribution for L=           0  read in
    real space projection operators read in
  non local Contribution for L=           1  read in
    real space projection operators read in
  non local Contribution for L=           1  read in
    real space projection operators read in
  non local Contribution for L=           2  read in
    real space projection operators read in
    PAW grid and wavefunctions read in
 
   number of l-projection  operators is LMAX  =           5
   number of lm-projection operators is LMMAX =          13
 
  PAW_PBE Ta_pv 07Sep2000               :
 energy of atom  1       EATOM=-1047.1984
 kinetic energy error for atom=    0.0016 (will be added to EATOM!!)
  PAW_PBE Ga_d 06Jul2010                :
 energy of atom  2       EATOM=-2148.8298
 kinetic energy error for atom=    0.0026 (will be added to EATOM!!)
  PAW_PBE Se 06Sep2000                  :
 energy of atom  3       EATOM= -257.1286
 kinetic energy error for atom=    0.0007 (will be added to EATOM!!)
 
 
 POSCAR: Ta4 Ga1 Se8                             
  positions in direct lattice
  velocities in cartesian coordinates
 exchange correlation table for  LEXCH =        8
   RHO(1)=    0.500       N(1)  =     2000
   RHO(2)=  100.500       N(2)  =     4000
 


--------------------------------------------------------------------------------------------------------


 ion  position               nearest neighbor table
   1  0.602  0.602  0.193-   9 2.56   8 2.56   7 2.56  13 2.81  12 2.81  11 2.81   2 3.05   3 3.05
                             4 3.05
   2  0.602  0.193  0.602-   9 2.56   8 2.56   6 2.56  10 2.81  12 2.81  13 2.81   1 3.05   3 3.05
                             4 3.05
   3  0.193  0.602  0.602-   9 2.56   7 2.56   6 2.56  10 2.81  11 2.81  13 2.81   1 3.05   2 3.05
                             4 3.05
   4  0.602  0.602  0.602-   6 2.56   7 2.56   8 2.56  10 2.81  11 2.81  12 2.81   1 3.05   2 3.05
                             3 3.05
   5  0.000  0.000  0.000-  10 2.46  11 2.46  12 2.46  13 2.46
   6  0.364  0.364  0.908-   4 2.56   3 2.56   2 2.56
   7  0.364  0.908  0.364-   4 2.56   3 2.56   1 2.56
   8  0.908  0.364  0.364-   4 2.56   2 2.56   1 2.56
   9  0.364  0.364  0.364-   1 2.56   2 2.56   3 2.56
  10  0.865  0.865  0.405-   5 2.46   3 2.81   4 2.81   2 2.81
  11  0.865  0.405  0.865-   5 2.46   3 2.81   4 2.81   1 2.81
  12  0.405  0.865  0.865-   5 2.46   2 2.81   4 2.81   1 2.81
  13  0.865  0.865  0.865-   5 2.46   1 2.81   3 2.81   2 2.81
 
  LATTYP: Found a face centered cubic cell.
 ALAT       =    10.5258103591
  
  Lattice vectors:
  
 A1 = (   0.0000000000,   5.2629051796,   5.2629051796)
 A2 = (   5.2629051796,   0.0000000000,   5.2629051796)
 A3 = (   5.2629051796,   5.2629051796,   0.0000000000)


Analysis of symmetry for initial positions (statically):
=====================================================================
 Subroutine PRICEL returns:
 Original cell was already a primitive cell.
 

 Routine SETGRP: Setting up the symmetry group for a 
 face centered cubic supercell.


 Subroutine GETGRP returns: Found 24 space group operations
 (whereof 24 operations were pure point group operations)
 out of a pool of 48 trial point group operations.


The static configuration has the point symmetry T_d .


Analysis of symmetry for dynamics (positions and initial velocities):
=====================================================================
 Subroutine PRICEL returns:
 Original cell was already a primitive cell.
 

 Routine SETGRP: Setting up the symmetry group for a 
 face centered cubic supercell.


 Subroutine GETGRP returns: Found 24 space group operations
 (whereof 24 operations were pure point group operations)
 out of a pool of 48 trial point group operations.


The dynamic configuration has the point symmetry T_d .


Analysis of magnetic symmetry:
=====================================================================
 Subroutine PRICEL returns:
 Original cell was already a primitive cell.
 

 Subroutine MAGSYM returns: Found 24 space group operations
 (whereof 24 operations were pure point group operations)
 out of a pool of 24 trial space group operations
 (whereof 24 operations were pure point group operations)
 and found also     1 'primitive' translations


The magnetic configuration has the point symmetry T_d .
 
 
 KPOINTS: K-Mesh                                  

Automatic generation of k-mesh.
Space group operators:
 irot       det(A)        alpha          n_x          n_y          n_z        tau_x        tau_y        tau_z
    1     1.000000     0.000000     1.000000     0.000000     0.000000     0.000000     0.000000     0.000000
    2     1.000000   120.000000    -0.577350    -0.577350    -0.577350     0.000000     0.000000     0.000000
    3     1.000000   120.000000     0.577350     0.577350     0.577350     0.000000     0.000000     0.000000
    4    -1.000000    90.000000     0.000000     0.000000    -1.000000     0.000000     0.000000     0.000000
    5    -1.000000   180.000000     0.000000     0.707107     0.707107     0.000000     0.000000     0.000000
    6    -1.000000    90.000000     0.000000     1.000000     0.000000     0.000000     0.000000     0.000000
    7     1.000000   180.000000     0.000000     0.000000     1.000000     0.000000     0.000000     0.000000
    8     1.000000   120.000000    -0.577350     0.577350     0.577350     0.000000     0.000000     0.000000
    9     1.000000   120.000000    -0.577350     0.577350    -0.577350     0.000000     0.000000     0.000000
   10    -1.000000    90.000000     0.000000     0.000000     1.000000     0.000000     0.000000     0.000000
   11    -1.000000    90.000000    -1.000000     0.000000     0.000000     0.000000     0.000000     0.000000
   12    -1.000000   180.000000     0.707107     0.000000     0.707107     0.000000     0.000000     0.000000
   13     1.000000   120.000000     0.577350    -0.577350     0.577350     0.000000     0.000000     0.000000
   14     1.000000   120.000000    -0.577350    -0.577350     0.577350     0.000000     0.000000     0.000000
   15     1.000000   180.000000     1.000000     0.000000     0.000000     0.000000     0.000000     0.000000
   16    -1.000000    90.000000     0.000000    -1.000000     0.000000     0.000000     0.000000     0.000000
   17    -1.000000   180.000000     0.707107     0.707107     0.000000     0.000000     0.000000     0.000000
   18    -1.000000    90.000000     1.000000     0.000000     0.000000     0.000000     0.000000     0.000000
   19     1.000000   120.000000     0.577350    -0.577350    -0.577350     0.000000     0.000000     0.000000
   20     1.000000   180.000000     0.000000     1.000000     0.000000     0.000000     0.000000     0.000000
   21     1.000000   120.000000     0.577350     0.577350    -0.577350     0.000000     0.000000     0.000000
   22    -1.000000   180.000000     0.000000    -0.707107     0.707107     0.000000     0.000000     0.000000
   23    -1.000000   180.000000     0.707107    -0.707107     0.000000     0.000000     0.000000     0.000000
   24    -1.000000   180.000000     0.707107     0.000000    -0.707107     0.000000     0.000000     0.000000
 
 Subroutine IBZKPT returns following result:
 ===========================================
 
 Found     35 irreducible k-points:
 
 Following reciprocal coordinates:
            Coordinates               Weight
  0.000000  0.000000  0.000000      1.000000
  0.111111  0.000000  0.000000      8.000000
  0.222222  0.000000  0.000000      8.000000
  0.333333  0.000000  0.000000      8.000000
  0.444444  0.000000  0.000000      8.000000
  0.111111  0.111111  0.000000      6.000000
  0.222222  0.111111  0.000000     24.000000
  0.333333  0.111111  0.000000     24.000000
  0.444444  0.111111  0.000000     24.000000
 -0.444444  0.111111  0.000000     24.000000
 -0.333333  0.111111  0.000000     24.000000
 -0.222222  0.111111  0.000000     24.000000
 -0.111111  0.111111  0.000000     12.000000
  0.222222  0.222222  0.000000      6.000000
  0.333333  0.222222  0.000000     24.000000
  0.444444  0.222222  0.000000     24.000000
 -0.444444  0.222222  0.000000     24.000000
 -0.333333  0.222222  0.000000     24.000000
 -0.222222  0.222222  0.000000     12.000000
  0.333333  0.333333  0.000000      6.000000
  0.444444  0.333333  0.000000     24.000000
 -0.444444  0.333333  0.000000     24.000000
 -0.333333  0.333333  0.000000     12.000000
  0.444444  0.444444  0.000000      6.000000
 -0.444444  0.444444  0.000000     12.000000
  0.333333  0.222222  0.111111     24.000000
  0.444444  0.222222  0.111111     48.000000
 -0.444444  0.222222  0.111111     48.000000
  0.444444  0.333333  0.111111     24.000000
 -0.444444  0.333333  0.111111     48.000000
 -0.333333  0.333333  0.111111     48.000000
 -0.222222  0.333333  0.111111     24.000000
 -0.444444  0.444444  0.111111     24.000000
 -0.333333  0.444444  0.111111     24.000000
 -0.333333  0.444444  0.222222     24.000000
 
 Following cartesian coordinates:
            Coordinates               Weight
  0.000000  0.000000  0.000000      1.000000
 -0.010556  0.010556  0.010556      8.000000
 -0.021112  0.021112  0.021112      8.000000
 -0.031668  0.031668  0.031668      8.000000
 -0.042224  0.042224  0.042224      8.000000
  0.000000  0.000000  0.021112      6.000000
 -0.010556  0.010556  0.031668     24.000000
 -0.021112  0.021112  0.042224     24.000000
 -0.031668  0.031668  0.052780     24.000000
  0.052780 -0.052780 -0.031668     24.000000
  0.042224 -0.042224 -0.021112     24.000000
  0.031668 -0.031668 -0.010556     24.000000
  0.021112 -0.021112  0.000000     12.000000
  0.000000  0.000000  0.042224      6.000000
 -0.010556  0.010556  0.052780     24.000000
 -0.021112  0.021112  0.063336     24.000000
  0.063336 -0.063336 -0.021112     24.000000
  0.052780 -0.052780 -0.010556     24.000000
  0.042224 -0.042224  0.000000     12.000000
  0.000000  0.000000  0.063336      6.000000
 -0.010556  0.010556  0.073892     24.000000
  0.073892 -0.073892 -0.010556     24.000000
  0.063336 -0.063336  0.000000     12.000000
  0.000000  0.000000  0.084448      6.000000
  0.084448 -0.084448  0.000000     12.000000
  0.000000  0.021112  0.042224     24.000000
 -0.010556  0.031668  0.052780     48.000000
  0.073892 -0.052780 -0.031668     48.000000
  0.000000  0.021112  0.063336     24.000000
  0.084448 -0.063336 -0.021112     48.000000
  0.073892 -0.052780 -0.010556     48.000000
  0.063336 -0.042224  0.000000     24.000000
  0.095005 -0.073892 -0.010556     24.000000
  0.084448 -0.063336  0.000000     24.000000
  0.095005 -0.052780 -0.010556     24.000000
 


--------------------------------------------------------------------------------------------------------




 Dimension of arrays:
   k-points           NKPTS =     35   k-points in BZ     NKDIM =     35   number of bands    NBANDS=     72
   number of dos      NEDOS =    301   number of ions     NIONS =     13
   non local maximal  LDIM  =      6   non local SUM 2l+1 LMDIM =     18
   total plane-waves  NPLWV = 175616
   max r-space proj   IRMAX =      1   max aug-charges    IRDMAX= 270892
   dimension x,y,z NGX =    56 NGY =   56 NGZ =   56
   dimension x,y,z NGXF=   112 NGYF=  112 NGZF=  112
   support grid    NGXF=   224 NGYF=  224 NGZF=  224
   ions per type =               4   1   8
 NGX,Y,Z   is equivalent  to a cutoff of  12.51, 12.51, 12.51 a.u.
 NGXF,Y,Z  is equivalent  to a cutoff of  25.02, 25.02, 25.02 a.u.


 I would recommend the setting:
   dimension x,y,z NGX =    55 NGY =   55 NGZ =   55
 SYSTEM =  unknown system                          
 POSCAR =  Ta4 Ga1 Se8                             

 Startparameter for this run:
   NWRITE =      2    write-flag & timer
   PREC   = accura    normal or accurate (medium, high low for compatibility)
   ISTART =      0    job   : 0-new  1-cont  2-samecut
   ICHARG =      2    charge: 1-file 2-atom 10-const
   ISPIN  =      2    spin polarized calculation?
   LNONCOLLINEAR =      F non collinear calculations
   LSORBIT =      F    spin-orbit coupling
   INIWAV =      1    electr: 0-lowe 1-rand  2-diag
   LASPH  =      F    aspherical Exc in radial PAW
   METAGGA=      F    non-selfconsistent MetaGGA calc.

 Electronic Relaxation 1
   ENCUT  =  520.0 eV  38.22 Ry    6.18 a.u.  13.84 13.84 13.84*2*pi/ulx,y,z
   ENINI  =  520.0     initial cutoff
   ENAUG  =  490.7 eV  augmentation charge cutoff
   NELM   =     60;   NELMIN=  6; NELMDL= -5     # of ELM steps 
   EDIFF  = 0.1E-03   stopping-criterion for ELM
   LREAL  =      F    real-space projection
   NLSPLINE    = F    spline interpolate recip. space projectors
   LCOMPAT=      F    compatible to vasp.4.4
   GGA_COMPAT  = T    GGA compatible to vasp.4.4-vasp.4.6
   LMAXPAW     = -100 max onsite density
   LMAXMIX     =    4 max onsite mixed and CHGCAR
   VOSKOWN=      0    Vosko Wilk Nusair interpolation
   ROPT   =    0.00000   0.00000   0.00000
 Ionic relaxation
   EDIFFG = -.1E-02   stopping-criterion for IOM
   NSW    =     40    number of steps for IOM
   NBLOCK =      1;   KBLOCK =     40    inner block; outer block 
   IBRION =      2    ionic relax: 0-MD 1-quasi-New 2-CG
   NFREE  =      1    steps in history (QN), initial steepest desc. (CG)
   ISIF   =      3    stress and relaxation
   IWAVPR =     11    prediction:  0-non 1-charg 2-wave 3-comb
   ISYM   =      2    0-nonsym 1-usesym 2-fastsym
   LCORR  =      T    Harris-Foulkes like correction to forces

   POTIM  = 0.0500    time-step for ionic-motion
   TEIN   =    0.0    initial temperature
   TEBEG  =    0.0;   TEEND  =   0.0 temperature during run
   SMASS  =  -3.00    Nose mass-parameter (am)
   estimated Nose-frequenzy (Omega)   =  0.10E-29 period in steps =****** mass=  -0.127E-26a.u.
   SCALEE = 1.0000    scale energy and forces
   NPACO  =    256;   APACO  = 16.0  distance and # of slots for P.C.
   PSTRESS=    0.0 pullay stress

  Mass of Ions in am
   POMASS = 180.95 69.72 78.96
  Ionic Valenz
   ZVAL   =  11.00 13.00  6.00
  Atomic Wigner-Seitz radii
   RWIGS  =  -1.00 -1.00 -1.00
  virtual crystal weights 
   VCA    =   1.00  1.00  1.00
   NELECT =     105.0000    total number of electrons
   NUPDOWN=      -1.0000    fix difference up-down

 DOS related values:
   EMIN   =  10.00;   EMAX   =-10.00  energy-range for DOS
   EFERMI =   0.00
   ISMEAR =     0;   SIGMA  =   0.05  broadening in eV -4-tet -1-fermi 0-gaus

 Electronic relaxation 2 (details)
   IALGO  =     38    algorithm
   LDIAG  =      T    sub-space diagonalisation (order eigenvalues)
   LSUBROT=      F    optimize rotation matrix (better conditioning)
   TURBO    =      0    0=normal 1=particle mesh
   IRESTART =      0    0=no restart 2=restart with 2 vectors
   NREBOOT  =      0    no. of reboots
   NMIN     =      0    reboot dimension
   EREF     =   0.00    reference energy to select bands
   IMIX   =      4    mixing-type and parameters
     AMIX     =   0.10;   BMIX     =  1.20
     AMIX_MAG =   0.40;   BMIX_MAG =  1.20
     AMIN     =   0.10
     WC   =   100.;   INIMIX=   1;  MIXPRE=   1;  MAXMIX= -45

 Intra band minimization:
   WEIMIN = 0.0010     energy-eigenvalue tresh-hold
   EBREAK =  0.35E-06  absolut break condition
   DEPER  =   0.30     relativ break condition  

   TIME   =   0.40     timestep for ELM

  volume/ion in A,a.u.               =      22.43       151.34
  Fermi-wavevector in a.u.,A,eV,Ry     =   1.164758  2.201074 18.458498  1.356661
  Thomas-Fermi vector in A             =   2.301292
 
 Write flags
   LWAVE  =      F    write WAVECAR
   LCHARG =      F    write CHGCAR
   LVTOT  =      F    write LOCPOT, total local potential
   LVHAR  =      F    write LOCPOT, Hartree potential only
   LELF   =      F    write electronic localiz. function (ELF)
   LORBIT =      0    0 simple, 1 ext, 2 COOP (PROOUT)


 Dipole corrections
   LMONO  =      F    monopole corrections only (constant potential shift)
   LDIPOL =      F    correct potential (dipole corrections)
   IDIPOL =      0    1-x, 2-y, 3-z, 4-all directions 
   EPSILON=  1.0000000 bulk dielectric constant

 LDA+U is selected, type is set to LDAUTYPE =  2
   angular momentum for each species LDAUL =     2    2   -1
   U (eV)           for each species LDAUU =   2.0  3.9  0.0
   J (eV)           for each species LDAUJ =   0.0  0.0  0.0
 Exchange correlation treatment:
   GGA     =    --    GGA type
   LEXCH   =     8    internal setting for exchange type
   VOSKOWN=      0    Vosko Wilk Nusair interpolation
   LHFCALC =     F    Hartree Fock is set to
   LHFONE  =     F    Hartree Fock one center treatment
   AEXX    =    0.0000 exact exchange contribution

 Linear response parameters
   LEPSILON=     F    determine dielectric tensor
   LRPA    =     F    only Hartree local field effects (RPA)
   LNABLA  =     F    use nabla operator in PAW spheres
   LVEL    =     F    velocity operator in full k-point grid
   LINTERFAST=   F  fast interpolation
   KINTER  =     0    interpolate to denser k-point grid
   CSHIFT  =0.1000    complex shift for real part using Kramers Kronig
   OMEGAMAX=  -1.0    maximum frequency
   DEG_THRESHOLD= 0.2000000E-02 threshold for treating states as degnerate
   RTIME   =    0.100 relaxation time in fs

 Orbital magnetization related:
   ORBITALMAG=     F  switch on orbital magnetization
   LCHIMAG   =     F  perturbation theory with respect to B field
   DQ        =  0.001000  dq finite difference perturbation B field



--------------------------------------------------------------------------------------------------------


 conjugate gradient relaxation of ions
 charge density and potential will be updated during run
 spin polarized calculation
 Variant of blocked Davidson
 Davidson routine will perform the subspace rotation
 perform sub-space diagonalisation
    after iterative eigenvector-optimisation
 modified Broyden-mixing scheme, WC =      100.0
 initial mixing is a Kerker type mixing with AMIX =  0.1000 and BMIX =      1.2000
 Hartree-type preconditioning will be used
 using additional bands           19
 reciprocal scheme for non local part
 use partial core corrections
 calculate Harris-corrections to forces 
   (improved forces if not selfconsistent)
 use gradient corrections 
 use of overlap-Matrix (Vanderbilt PP)
 Gauss-broadening in eV      SIGMA  =   0.05


--------------------------------------------------------------------------------------------------------


  energy-cutoff  :      520.00
  volume of cell :      291.55
      direct lattice vectors                 reciprocal lattice vectors
     0.000000000  5.262905180  5.262905180    -0.095004562  0.095004562  0.095004562
     5.262905180  0.000000000  5.262905180     0.095004562 -0.095004562  0.095004562
     5.262905180  5.262905180  0.000000000     0.095004562  0.095004562 -0.095004562

  length of vectors
     7.442871882  7.442871882  7.442871882     0.164552728  0.164552728  0.164552728


 
 k-points in units of 2pi/SCALE and weight: K-Mesh                                  
   0.00000000  0.00000000  0.00000000       0.001
  -0.01055606  0.01055606  0.01055606       0.011
  -0.02111212  0.02111212  0.02111212       0.011
  -0.03166819  0.03166819  0.03166819       0.011
  -0.04222425  0.04222425  0.04222425       0.011
   0.00000000  0.00000000  0.02111212       0.008
  -0.01055606  0.01055606  0.03166819       0.033
  -0.02111212  0.02111212  0.04222425       0.033
  -0.03166819  0.03166819  0.05278031       0.033
   0.05278031 -0.05278031 -0.03166819       0.033
   0.04222425 -0.04222425 -0.02111212       0.033
   0.03166819 -0.03166819 -0.01055606       0.033
   0.02111212 -0.02111212  0.00000000       0.016
   0.00000000  0.00000000  0.04222425       0.008
  -0.01055606  0.01055606  0.05278031       0.033
  -0.02111212  0.02111212  0.06333637       0.033
   0.06333637 -0.06333637 -0.02111212       0.033
   0.05278031 -0.05278031 -0.01055606       0.033
   0.04222425 -0.04222425  0.00000000       0.016
   0.00000000  0.00000000  0.06333637       0.008
  -0.01055606  0.01055606  0.07389244       0.033
   0.07389244 -0.07389244 -0.01055606       0.033
   0.06333637 -0.06333637  0.00000000       0.016
   0.00000000  0.00000000  0.08444850       0.008
   0.08444850 -0.08444850  0.00000000       0.016
   0.00000000  0.02111212  0.04222425       0.033
  -0.01055606  0.03166819  0.05278031       0.066
   0.07389244 -0.05278031 -0.03166819       0.066
   0.00000000  0.02111212  0.06333637       0.033
   0.08444850 -0.06333637 -0.02111212       0.066
   0.07389244 -0.05278031 -0.01055606       0.066
   0.06333637 -0.04222425  0.00000000       0.033
   0.09500456 -0.07389244 -0.01055606       0.033
   0.08444850 -0.06333637  0.00000000       0.033
   0.09500456 -0.05278031 -0.01055606       0.033
 
 k-points in reciprocal lattice and weights: K-Mesh                                  
   0.00000000  0.00000000  0.00000000       0.001
   0.11111111  0.00000000  0.00000000       0.011
   0.22222222  0.00000000  0.00000000       0.011
   0.33333333  0.00000000  0.00000000       0.011
   0.44444444  0.00000000  0.00000000       0.011
   0.11111111  0.11111111  0.00000000       0.008
   0.22222222  0.11111111  0.00000000       0.033
   0.33333333  0.11111111  0.00000000       0.033
   0.44444444  0.11111111  0.00000000       0.033
  -0.44444444  0.11111111  0.00000000       0.033
  -0.33333333  0.11111111  0.00000000       0.033
  -0.22222222  0.11111111  0.00000000       0.033
  -0.11111111  0.11111111  0.00000000       0.016
   0.22222222  0.22222222  0.00000000       0.008
   0.33333333  0.22222222  0.00000000       0.033
   0.44444444  0.22222222  0.00000000       0.033
  -0.44444444  0.22222222  0.00000000       0.033
  -0.33333333  0.22222222  0.00000000       0.033
  -0.22222222  0.22222222  0.00000000       0.016
   0.33333333  0.33333333  0.00000000       0.008
   0.44444444  0.33333333  0.00000000       0.033
  -0.44444444  0.33333333  0.00000000       0.033
  -0.33333333  0.33333333  0.00000000       0.016
   0.44444444  0.44444444  0.00000000       0.008
  -0.44444444  0.44444444  0.00000000       0.016
   0.33333333  0.22222222  0.11111111       0.033
   0.44444444  0.22222222  0.11111111       0.066
  -0.44444444  0.22222222  0.11111111       0.066
   0.44444444  0.33333333  0.11111111       0.033
  -0.44444444  0.33333333  0.11111111       0.066
  -0.33333333  0.33333333  0.11111111       0.066
  -0.22222222  0.33333333  0.11111111       0.033
  -0.44444444  0.44444444  0.11111111       0.033
  -0.33333333  0.44444444  0.11111111       0.033
  -0.33333333  0.44444444  0.22222222       0.033
 
 position of ions in fractional coordinates (direct lattice) 
   0.60236569  0.60236569  0.19290293
   0.60236569  0.19290293  0.60236569
   0.19290293  0.60236569  0.60236569
   0.60236569  0.60236569  0.60236569
   0.00000000  0.00000000  0.00000000
   0.36400740  0.36400740  0.90797780
   0.36400740  0.90797780  0.36400740
   0.90797780  0.36400740  0.36400740
   0.36400740  0.36400740  0.36400740
   0.86500044  0.86500044  0.40499867
   0.86500044  0.40499867  0.86500044
   0.40499867  0.86500044  0.86500044
   0.86500044  0.86500044  0.86500044
 
 position of ions in cartesian coordinates  (Angst):
   4.18542336  4.18542336  6.34038700
   4.18542336  6.34038700  4.18542336
   6.34038700  4.18542336  4.18542336
   6.34038700  6.34038700  6.34038700
   0.00000000  0.00000000  0.00000000
   6.69433749  6.69433749  3.83147286
   6.69433749  3.83147286  6.69433749
   3.83147286  6.69433749  6.69433749
   3.83147286  3.83147286  3.83147286
   6.68388491  6.68388491  9.10483063
   6.68388491  9.10483063  6.68388491
   9.10483063  6.68388491  6.68388491
   9.10483063  9.10483063  9.10483063
 


--------------------------------------------------------------------------------------------------------


 k-point  1 :   0.0000 0.0000 0.0000  plane waves:    7799
 k-point  2 :   0.1111 0.0000 0.0000  plane waves:    7814
 k-point  3 :   0.2222 0.0000 0.0000  plane waves:    7832
 k-point  4 :   0.3333 0.0000 0.0000  plane waves:    7873
 k-point  5 :   0.4444 0.0000 0.0000  plane waves:    7846
 k-point  6 :   0.1111 0.1111 0.0000  plane waves:    7819
 k-point  7 :   0.2222 0.1111 0.0000  plane waves:    7845
 k-point  8 :   0.3333 0.1111 0.0000  plane waves:    7865
 k-point  9 :   0.4444 0.1111 0.0000  plane waves:    7857
 k-point 10 :  -0.4444 0.1111 0.0000  plane waves:    7848
 k-point 11 :  -0.3333 0.1111 0.0000  plane waves:    7851
 k-point 12 :  -0.2222 0.1111 0.0000  plane waves:    7838
 k-point 13 :  -0.1111 0.1111 0.0000  plane waves:    7828
 k-point 14 :   0.2222 0.2222 0.0000  plane waves:    7864
 k-point 15 :   0.3333 0.2222 0.0000  plane waves:    7844
 k-point 16 :   0.4444 0.2222 0.0000  plane waves:    7857
 k-point 17 :  -0.4444 0.2222 0.0000  plane waves:    7840
 k-point 18 :  -0.3333 0.2222 0.0000  plane waves:    7846
 k-point 19 :  -0.2222 0.2222 0.0000  plane waves:    7846
 k-point 20 :   0.3333 0.3333 0.0000  plane waves:    7824
 k-point 21 :   0.4444 0.3333 0.0000  plane waves:    7877
 k-point 22 :  -0.4444 0.3333 0.0000  plane waves:    7862
 k-point 23 :  -0.3333 0.3333 0.0000  plane waves:    7860
 k-point 24 :   0.4444 0.4444 0.0000  plane waves:    7856
 k-point 25 :  -0.4444 0.4444 0.0000  plane waves:    7886
 k-point 26 :   0.3333 0.2222 0.1111  plane waves:    7850
 k-point 27 :   0.4444 0.2222 0.1111  plane waves:    7854
 k-point 28 :  -0.4444 0.2222 0.1111  plane waves:    7844
 k-point 29 :   0.4444 0.3333 0.1111  plane waves:    7856
 k-point 30 :  -0.4444 0.3333 0.1111  plane waves:    7849
 k-point 31 :  -0.3333 0.3333 0.1111  plane waves:    7840
 k-point 32 :  -0.2222 0.3333 0.1111  plane waves:    7839
 k-point 33 :  -0.4444 0.4444 0.1111  plane waves:    7873
 k-point 34 :  -0.3333 0.4444 0.1111  plane waves:    7861
 k-point 35 :  -0.3333 0.4444 0.2222  plane waves:    7865

 maximum and minimum number of plane-waves per node :       677      633

 maximum number of plane-waves:      7886
 maximum index in each direction: 
   IXMAX=   14   IYMAX=   13   IZMAX=   13
   IXMIN=  -14   IYMIN=  -14   IZMIN=  -14

 WARNING: aliasing errors must be expected set NGX to  58 to avoid them
 NGY is ok and might be reduce to  56
 NGZ is ok and might be reduce to  56
 aliasing errors are usually negligible using standard VASP settings
 and one can safely disregard these warnings

 parallel 3D FFT for wavefunctions:
    minimum data exchange during FFTs selected (reduces bandwidth)
 parallel 3D FFT for charge:
    minimum data exchange during FFTs selected (reduces bandwidth)


 total amount of memory used by VASP on root node    56991. kBytes
========================================================================

   base      :      30000. kBytes
   nonl-proj :      10116. kBytes
   fftplans  :       3956. kBytes
   grid      :       3503. kBytes
   one-center:         62. kBytes
   wavefun   :       9354. kBytes
 
     INWAV:  cpu time    0.0000: real time    0.0004
 Broyden mixing: mesh for mixing (old mesh)
   NGX = 27   NGY = 27   NGZ = 27
  (NGX  =112   NGY  =112   NGZ  =112)
  gives a total of  19683 points

 initial charge density was supplied:
 charge density of overlapping atoms calculated
 number of electron     105.0000000 magnetization      13.0000000
 keeping initial charge density in first step


--------------------------------------------------------------------------------------------------------


 Maximum index for augmentation-charges         6820 (set IRDMAX)


--------------------------------------------------------------------------------------------------------


 First call to EWALD:  gamma=   0.267
 Maximum number of real-space cells 3x 3x 3
 Maximum number of reciprocal cells 3x 3x 3

 FEWALD executed in parallel
    FEWALD:  cpu time    0.0020: real time    0.0080


----------------------------------------- Iteration    1(   1)  ---------------------------------------


    POTLOK:  cpu time    0.1050: real time    0.1269
    SETDIJ:  cpu time    0.1930: real time    0.2008
     EDDAV:  cpu time    7.2589: real time    7.5451
       DOS:  cpu time    0.0040: real time    0.0133
    --------------------------------------------
      LOOP:  cpu time    7.5668: real time    7.9041

 eigenvalue-minimisations  : 10932
 total energy-change (2. order) : 0.9474528E+03  (-0.4926561E+04)
 number of electron     105.0000000 magnetization      13.0000000
 augmentation part      105.0000000 magnetization      13.0000000

 Free energy of the ion-electron system (eV)
  ---------------------------------------------------
  alpha Z        PSCENC =       505.10205580
  Ewald energy   TEWEN  =     -6074.94417597
  -Hartree energ DENC   =     -2006.20763092
  -exchange      EXHF   =         0.00000000
  -V(xc)+E(xc)   XCENC  =       133.65622454
  PAW double counting   =      6568.38814909    -6703.61005876
  entropy T*S    EENTRO =        -0.00487697
  eigenvalues    EBANDS =       130.43605621
  atomic energy  EATOM  =      8394.63709520
  Solvation  Ediel_sol  =         0.00000000
  ---------------------------------------------------
  free energy    TOTEN  =       947.45283822 eV

  energy without entropy =      947.45771519  energy(sigma->0) =      947.45527671


--------------------------------------------------------------------------------------------------------




----------------------------------------- Iteration    1(   2)  ---------------------------------------


     EDDAV:  cpu time    7.2639: real time    7.2830
       DOS:  cpu time    0.0030: real time    0.0029
    --------------------------------------------
      LOOP:  cpu time    7.2699: real time    7.3033

 eigenvalue-minimisations  : 11124
 total energy-change (2. order) :-0.9278495E+03  (-0.8849940E+03)
 number of electron     105.0000000 magnetization      13.0000000
 augmentation part      105.0000000 magnetization      13.0000000

 Free energy of the ion-electron system (eV)
  ---------------------------------------------------
  alpha Z        PSCENC =       505.10205580
  Ewald energy   TEWEN  =     -6074.94417597
  -Hartree energ DENC   =     -2006.20763092
  -exchange      EXHF   =         0.00000000
  -V(xc)+E(xc)   XCENC  =       133.65622454
  PAW double counting   =      6568.38814909    -6703.61005876
  entropy T*S    EENTRO =        -0.00223930
  eigenvalues    EBANDS =      -797.41611228
  atomic energy  EATOM  =      8394.63709520
  Solvation  Ediel_sol  =         0.00000000
  ---------------------------------------------------
  free energy    TOTEN  =        19.60330739 eV

  energy without entropy =       19.60554670  energy(sigma->0) =       19.60442705


--------------------------------------------------------------------------------------------------------




----------------------------------------- Iteration    1(   3)  ---------------------------------------


     EDDAV:  cpu time    7.7148: real time    7.7493
       DOS:  cpu time    0.0040: real time    0.0032
    --------------------------------------------
      LOOP:  cpu time    7.7208: real time    7.7701

 eigenvalue-minimisations  : 12012
 total energy-change (2. order) :-0.9866456E+02  (-0.9589113E+02)
 number of electron     105.0000000 magnetization      13.0000000
 augmentation part      105.0000000 magnetization      13.0000000

 Free energy of the ion-electron system (eV)
  ---------------------------------------------------
  alpha Z        PSCENC =       505.10205580
  Ewald energy   TEWEN  =     -6074.94417597
  -Hartree energ DENC   =     -2006.20763092
  -exchange      EXHF   =         0.00000000
  -V(xc)+E(xc)   XCENC  =       133.65622454
  PAW double counting   =      6568.38814909    -6703.61005876
  entropy T*S    EENTRO =        -0.00473690
  eigenvalues    EBANDS =      -896.07817419
  atomic energy  EATOM  =      8394.63709520
  Solvation  Ediel_sol  =         0.00000000
  ---------------------------------------------------
  free energy    TOTEN  =       -79.06125211 eV

  energy without entropy =      -79.05651521  energy(sigma->0) =      -79.05888366


--------------------------------------------------------------------------------------------------------




----------------------------------------- Iteration    1(   4)  ---------------------------------------


     EDDAV:  cpu time    7.9758: real time    7.9983
       DOS:  cpu time    0.0030: real time    0.0030
    --------------------------------------------
      LOOP:  cpu time    7.9818: real time    8.0170

 eigenvalue-minimisations  : 12600
 total energy-change (2. order) :-0.4211308E+01  (-0.4161705E+01)
 number of electron     105.0000000 magnetization      13.0000000
 augmentation part      105.0000000 magnetization      13.0000000

 Free energy of the ion-electron system (eV)
  ---------------------------------------------------
  alpha Z        PSCENC =       505.10205580
  Ewald energy   TEWEN  =     -6074.94417597
  -Hartree energ DENC   =     -2006.20763092
  -exchange      EXHF   =         0.00000000
  -V(xc)+E(xc)   XCENC  =       133.65622454
  PAW double counting   =      6568.38814909    -6703.61005876
  entropy T*S    EENTRO =        -0.00322348
  eigenvalues    EBANDS =      -900.29099546
  atomic energy  EATOM  =      8394.63709520
  Solvation  Ediel_sol  =         0.00000000
  ---------------------------------------------------
  free energy    TOTEN  =       -83.27255996 eV

  energy without entropy =      -83.26933648  energy(sigma->0) =      -83.27094822


--------------------------------------------------------------------------------------------------------




----------------------------------------- Iteration    1(   5)  ---------------------------------------


     EDDAV:  cpu time    8.0968: real time    8.1140
       DOS:  cpu time    0.0030: real time    0.0031
    CHARGE:  cpu time    0.4419: real time    0.4553
    MIXING:  cpu time    0.0050: real time    0.0155
    --------------------------------------------
      LOOP:  cpu time    8.5497: real time    8.5989

 eigenvalue-minimisations  : 12852
 total energy-change (2. order) :-0.9873248E-01  (-0.9835694E-01)
 number of electron     105.0000001 magnetization      10.9562962
 augmentation part       11.9799241 magnetization      10.0102876

 Broyden mixing:
  rms(total) = 0.30310E+01    rms(broyden)= 0.30310E+01
  rms(prec ) = 0.35792E+01
  weight for this iteration     100.00

 Free energy of the ion-electron system (eV)
  ---------------------------------------------------
  alpha Z        PSCENC =       505.10205580
  Ewald energy   TEWEN  =     -6074.94417597
  -Hartree energ DENC   =     -2006.20763092
  -exchange      EXHF   =         0.00000000
  -V(xc)+E(xc)   XCENC  =       133.65622454
  PAW double counting   =      6568.38814909    -6703.61005876
  entropy T*S    EENTRO =        -0.00324160
  eigenvalues    EBANDS =      -900.38970982
  atomic energy  EATOM  =      8394.63709520
  Solvation  Ediel_sol  =         0.00000000
  ---------------------------------------------------
  free energy    TOTEN  =       -83.37129244 eV

  energy without entropy =      -83.36805084  energy(sigma->0) =      -83.36967164


--------------------------------------------------------------------------------------------------------




----------------------------------------- Iteration    1(   6)  ---------------------------------------


    POTLOK:  cpu time    0.1000: real time    0.1001
    SETDIJ:  cpu time    0.1740: real time    0.1757
     EDDAV:  cpu time    8.0528: real time    8.1804
       DOS:  cpu time    0.0030: real time    0.0030
    CHARGE:  cpu time    0.4329: real time    0.4356
    MIXING:  cpu time    0.0070: real time    0.0333
    --------------------------------------------
      LOOP:  cpu time    8.7727: real time    8.9431

 eigenvalue-minimisations  : 13368
 total energy-change (2. order) : 0.1276113E+01  (-0.1221973E+00)
 number of electron     105.0000001 magnetization       3.8199020
 augmentation part       12.2670455 magnetization       2.9062190

 Broyden mixing:
  rms(total) = 0.25339E+01    rms(broyden)= 0.25339E+01
  rms(prec ) = 0.29162E+01
  weight for this iteration     100.00

 eigenvalues of (default mixing * dielectric matrix)
  average eigenvalue GAMMA=   4.2790
  4.2790

 Free energy of the ion-electron system (eV)
  ---------------------------------------------------
  alpha Z        PSCENC =       505.10205580
  Ewald energy   TEWEN  =     -6074.94417597
  -Hartree energ DENC   =     -1989.64557090
  -exchange      EXHF   =         0.00000000
  -V(xc)+E(xc)   XCENC  =       132.96856439
  PAW double counting   =      6906.44399128    -7043.11212551
  entropy T*S    EENTRO =        -0.00277949
  eigenvalues    EBANDS =      -913.54223430
  atomic energy  EATOM  =      8394.63709520
  Solvation  Ediel_sol  =         0.00000000
  ---------------------------------------------------
  free energy    TOTEN  =       -82.09517950 eV

  energy without entropy =      -82.09240001  energy(sigma->0) =      -82.09378975


--------------------------------------------------------------------------------------------------------




----------------------------------------- Iteration    1(   7)  ---------------------------------------


    POTLOK:  cpu time    0.0990: real time    0.0990
    SETDIJ:  cpu time    0.1750: real time    0.1761
     EDDAV:  cpu time    7.7478: real time    7.7670
       DOS:  cpu time    0.0030: real time    0.0030
    CHARGE:  cpu time    0.4369: real time    0.4374
    MIXING:  cpu time    0.0030: real time    0.0076
    --------------------------------------------
      LOOP:  cpu time    8.4667: real time    8.5040

 eigenvalue-minimisations  : 12972
 total energy-change (2. order) : 0.1349573E+01  (-0.1145247E+01)
 number of electron     105.0000001 magnetization       2.1028463
 augmentation part       13.2038354 magnetization       1.2583254

 Broyden mixing:
  rms(total) = 0.99251E+00    rms(broyden)= 0.99251E+00
  rms(prec ) = 0.12048E+01
  weight for this iteration     100.00

 eigenvalues of (default mixing * dielectric matrix)
  average eigenvalue GAMMA=   3.9898
  2.7883  5.1913

 Free energy of the ion-electron system (eV)
  ---------------------------------------------------
  alpha Z        PSCENC =       505.10205580
  Ewald energy   TEWEN  =     -6074.94417597
  -Hartree energ DENC   =     -1944.70411402
  -exchange      EXHF   =         0.00000000
  -V(xc)+E(xc)   XCENC  =       131.70154854
  PAW double counting   =      8330.87437780    -8472.18664950
  entropy T*S    EENTRO =        -0.00411115
  eigenvalues    EBANDS =      -951.22163336
  atomic energy  EATOM  =      8394.63709520
  Solvation  Ediel_sol  =         0.00000000
  ---------------------------------------------------
  free energy    TOTEN  =       -80.74560666 eV

  energy without entropy =      -80.74149551  energy(sigma->0) =      -80.74355108


--------------------------------------------------------------------------------------------------------




----------------------------------------- Iteration    1(   8)  ---------------------------------------


    POTLOK:  cpu time    0.0990: real time    0.0992
    SETDIJ:  cpu time    0.1750: real time    0.1761
     EDDAV:  cpu time    7.4059: real time    7.4253
       DOS:  cpu time    0.0030: real time    0.0032
    CHARGE:  cpu time    0.4369: real time    0.4379
    MIXING:  cpu time    0.0030: real time    0.0090
    --------------------------------------------
      LOOP:  cpu time    8.1268: real time    8.1670

 eigenvalue-minimisations  : 12252
 total energy-change (2. order) :-0.8773715E-01  (-0.2424709E+00)
 number of electron     105.0000001 magnetization       0.0871721
 augmentation part       12.9595170 magnetization      -0.6315764

 Broyden mixing:
  rms(total) = 0.62471E+00    rms(broyden)= 0.62471E+00
  rms(prec ) = 0.72709E+00
  weight for this iteration     100.00

 eigenvalues of (default mixing * dielectric matrix)
  average eigenvalue GAMMA=   3.6832
  7.1599  1.0680  2.8217

 Free energy of the ion-electron system (eV)
  ---------------------------------------------------
  alpha Z        PSCENC =       505.10205580
  Ewald energy   TEWEN  =     -6074.94417597
  -Hartree energ DENC   =     -1957.50119487
  -exchange      EXHF   =         0.00000000
  -V(xc)+E(xc)   XCENC  =       131.83977708
  PAW double counting   =      9008.90584094    -9152.12789630
  entropy T*S    EENTRO =        -0.00559755
  eigenvalues    EBANDS =      -936.73924815
  atomic energy  EATOM  =      8394.63709520
  Solvation  Ediel_sol  =         0.00000000
  ---------------------------------------------------
  free energy    TOTEN  =       -80.83334381 eV

  energy without entropy =      -80.82774626  energy(sigma->0) =      -80.83054503


--------------------------------------------------------------------------------------------------------




----------------------------------------- Iteration    1(   9)  ---------------------------------------


    POTLOK:  cpu time    0.0990: real time    0.0992
    SETDIJ:  cpu time    0.1750: real time    0.1756
     EDDAV:  cpu time    7.6138: real time    7.6327
       DOS:  cpu time    0.0030: real time    0.0032
    CHARGE:  cpu time    0.4369: real time    0.4383
    MIXING:  cpu time    0.0030: real time    0.0025
    --------------------------------------------
      LOOP:  cpu time    8.3327: real time    8.3685

 eigenvalue-minimisations  : 12684
 total energy-change (2. order) :-0.8572154E-02  (-0.6209772E-01)
 number of electron     105.0000001 magnetization      -0.4167958
 augmentation part       13.1474729 magnetization      -1.0230271

 Broyden mixing:
  rms(total) = 0.34967E+00    rms(broyden)= 0.34967E+00
  rms(prec ) = 0.43436E+00
  weight for this iteration     100.00

 eigenvalues of (default mixing * dielectric matrix)
  average eigenvalue GAMMA=   3.4947
  8.2856  2.9991  1.0728  1.6212

 Free energy of the ion-electron system (eV)
  ---------------------------------------------------
  alpha Z        PSCENC =       505.10205580
  Ewald energy   TEWEN  =     -6074.94417597
  -Hartree energ DENC   =     -1945.85065618
  -exchange      EXHF   =         0.00000000
  -V(xc)+E(xc)   XCENC  =       131.72258193
  PAW double counting   =      9652.77588734    -9797.99658015
  entropy T*S    EENTRO =        -0.00701228
  eigenvalues    EBANDS =      -946.28111165
  atomic energy  EATOM  =      8394.63709520
  Solvation  Ediel_sol  =         0.00000000
  ---------------------------------------------------
  free energy    TOTEN  =       -80.84191596 eV

  energy without entropy =      -80.83490368  energy(sigma->0) =      -80.83840982


--------------------------------------------------------------------------------------------------------




----------------------------------------- Iteration    1(  10)  ---------------------------------------


    POTLOK:  cpu time    0.0990: real time    0.0995
    SETDIJ:  cpu time    0.1750: real time    0.1759
     EDDAV:  cpu time    7.6388: real time    7.6551
       DOS:  cpu time    0.0030: real time    0.0033
    CHARGE:  cpu time    0.4379: real time    0.4392
    MIXING:  cpu time    0.0030: real time    0.0036
    --------------------------------------------
      LOOP:  cpu time    8.3607: real time    8.3883

 eigenvalue-minimisations  : 12720
 total energy-change (2. order) :-0.3673705E-02  (-0.2422102E-01)
 number of electron     105.0000001 magnetization      -0.0249191
 augmentation part       13.1171795 magnetization      -0.4208555

 Broyden mixing:
  rms(total) = 0.13918E+00    rms(broyden)= 0.13918E+00
  rms(prec ) = 0.20652E+00
  weight for this iteration     100.00

 eigenvalues of (default mixing * dielectric matrix)
  average eigenvalue GAMMA=   3.2615
  8.4362  3.3168  2.4280  1.0634  1.0634

 Free energy of the ion-electron system (eV)
  ---------------------------------------------------
  alpha Z        PSCENC =       505.10205580
  Ewald energy   TEWEN  =     -6074.94417597
  -Hartree energ DENC   =     -1946.23584672
  -exchange      EXHF   =         0.00000000
  -V(xc)+E(xc)   XCENC  =       131.85305882
  PAW double counting   =     10211.36210272   -10358.50850315
  entropy T*S    EENTRO =        -0.00941788
  eigenvalues    EBANDS =      -944.10195850
  atomic energy  EATOM  =      8394.63709520
  Solvation  Ediel_sol  =         0.00000000
  ---------------------------------------------------
  free energy    TOTEN  =       -80.84558967 eV

  energy without entropy =      -80.83617179  energy(sigma->0) =      -80.84088073


--------------------------------------------------------------------------------------------------------




----------------------------------------- Iteration    1(  11)  ---------------------------------------


    POTLOK:  cpu time    0.0980: real time    0.0991
    SETDIJ:  cpu time    0.1760: real time    0.1761
     EDDAV:  cpu time    7.4039: real time    7.4189
       DOS:  cpu time    0.0030: real time    0.0031
    CHARGE:  cpu time    0.4389: real time    0.4404
    MIXING:  cpu time    0.0020: real time    0.0021
    --------------------------------------------
      LOOP:  cpu time    8.1258: real time    8.1570

 eigenvalue-minimisations  : 12216
 total energy-change (2. order) : 0.1859898E-01  (-0.1112138E-01)
 number of electron     105.0000001 magnetization       0.3009411
 augmentation part       13.0744346 magnetization      -0.0743470

 Broyden mixing:
  rms(total) = 0.86673E-01    rms(broyden)= 0.86673E-01
  rms(prec ) = 0.11517E+00
  weight for this iteration     100.00

 eigenvalues of (default mixing * dielectric matrix)
  average eigenvalue GAMMA=   3.3642
  8.6239  4.2923  2.8949  2.3757  0.9992  0.9992

 Free energy of the ion-electron system (eV)
  ---------------------------------------------------
  alpha Z        PSCENC =       505.10205580
  Ewald energy   TEWEN  =     -6074.94417597
  -Hartree energ DENC   =     -1947.02010777
  -exchange      EXHF   =         0.00000000
  -V(xc)+E(xc)   XCENC  =       131.92166350
  PAW double counting   =     10272.70395636   -10420.04771000
  entropy T*S    EENTRO =        -0.00963929
  eigenvalues    EBANDS =      -943.17012852
  atomic energy  EATOM  =      8394.63709520
  Solvation  Ediel_sol  =         0.00000000
  ---------------------------------------------------
  free energy    TOTEN  =       -80.82699068 eV

  energy without entropy =      -80.81735139  energy(sigma->0) =      -80.82217104


--------------------------------------------------------------------------------------------------------




----------------------------------------- Iteration    1(  12)  ---------------------------------------


    POTLOK:  cpu time    0.0980: real time    0.0989
    SETDIJ:  cpu time    0.1760: real time    0.1766
     EDDAV:  cpu time    7.6418: real time    7.6597
       DOS:  cpu time    0.0040: real time    0.0033
    CHARGE:  cpu time    0.4389: real time    0.4401
    MIXING:  cpu time    0.0020: real time    0.0022
    --------------------------------------------
      LOOP:  cpu time    8.3647: real time    8.3938

 eigenvalue-minimisations  : 12804
 total energy-change (2. order) :-0.2168794E-02  (-0.4909563E-02)
 number of electron     105.0000001 magnetization       0.3217797
 augmentation part       13.0209549 magnetization      -0.0397815

 Broyden mixing:
  rms(total) = 0.40053E-01    rms(broyden)= 0.40052E-01
  rms(prec ) = 0.55875E-01
  weight for this iteration     100.00

 eigenvalues of (default mixing * dielectric matrix)
  average eigenvalue GAMMA=   3.1251
  9.0054  4.3952  3.1045  2.3272  1.0898  1.0898  0.8641

 Free energy of the ion-electron system (eV)
  ---------------------------------------------------
  alpha Z        PSCENC =       505.10205580
  Ewald energy   TEWEN  =     -6074.94417597
  -Hartree energ DENC   =     -1948.99646460
  -exchange      EXHF   =         0.00000000
  -V(xc)+E(xc)   XCENC  =       132.00720093
  PAW double counting   =     10348.68068776   -10495.87204986
  entropy T*S    EENTRO =        -0.00976103
  eigenvalues    EBANDS =      -941.43374771
  atomic energy  EATOM  =      8394.63709520
  Solvation  Ediel_sol  =         0.00000000
  ---------------------------------------------------
  free energy    TOTEN  =       -80.82915948 eV

  energy without entropy =      -80.81939844  energy(sigma->0) =      -80.82427896


--------------------------------------------------------------------------------------------------------




----------------------------------------- Iteration    1(  13)  ---------------------------------------


    POTLOK:  cpu time    0.0980: real time    0.0990
    SETDIJ:  cpu time    0.1770: real time    0.1764
     EDDAV:  cpu time    7.6868: real time    7.7032
       DOS:  cpu time    0.0040: real time    0.0032
    CHARGE:  cpu time    0.4379: real time    0.4395
    MIXING:  cpu time    0.0030: real time    0.0030
    --------------------------------------------
      LOOP:  cpu time    8.4097: real time    8.4420

 eigenvalue-minimisations  : 12264
 total energy-change (2. order) :-0.5758946E-03  (-0.5469810E-03)
 number of electron     105.0000001 magnetization       0.3440247
 augmentation part       13.0289904 magnetization      -0.0076917

 Broyden mixing:
  rms(total) = 0.27160E-01    rms(broyden)= 0.27160E-01
  rms(prec ) = 0.31606E-01
  weight for this iteration     100.00

 eigenvalues of (default mixing * dielectric matrix)
  average eigenvalue GAMMA=   3.1705
  9.3358  4.7869  3.6542  2.6795  1.7759  1.2084  0.9615  0.9615

 Free energy of the ion-electron system (eV)
  ---------------------------------------------------
  alpha Z        PSCENC =       505.10205580
  Ewald energy   TEWEN  =     -6074.94417597
  -Hartree energ DENC   =     -1948.48107598
  -exchange      EXHF   =         0.00000000
  -V(xc)+E(xc)   XCENC  =       132.01453034
  PAW double counting   =     10389.87167500   -10537.10420143
  entropy T*S    EENTRO =        -0.00984661
  eigenvalues    EBANDS =      -941.91579171
  atomic energy  EATOM  =      8394.63709520
  Solvation  Ediel_sol  =         0.00000000
  ---------------------------------------------------
  free energy    TOTEN  =       -80.82973537 eV

  energy without entropy =      -80.81988876  energy(sigma->0) =      -80.82481207


--------------------------------------------------------------------------------------------------------




----------------------------------------- Iteration    1(  14)  ---------------------------------------


    POTLOK:  cpu time    0.1010: real time    0.1018
    SETDIJ:  cpu time    0.1760: real time    0.1759
     EDDAV:  cpu time    7.6138: real time    7.6325
       DOS:  cpu time    0.0030: real time    0.0032
    CHARGE:  cpu time    0.4379: real time    0.4389
    MIXING:  cpu time    0.0040: real time    0.0035
    --------------------------------------------
      LOOP:  cpu time    8.3387: real time    8.3728

 eigenvalue-minimisations  : 12672
 total energy-change (2. order) :-0.1328690E-02  (-0.2667266E-03)
 number of electron     105.0000001 magnetization       0.3864269
 augmentation part       13.0345169 magnetization       0.0433429

 Broyden mixing:
  rms(total) = 0.14315E-01    rms(broyden)= 0.14315E-01
  rms(prec ) = 0.16354E-01
  weight for this iteration     100.00

 eigenvalues of (default mixing * dielectric matrix)
  average eigenvalue GAMMA=   3.0689
  9.3570  5.1911  3.7655  2.6888  2.2432  1.2124  1.2124  0.9749  0.9749

 Free energy of the ion-electron system (eV)
  ---------------------------------------------------
  alpha Z        PSCENC =       505.10205580
  Ewald energy   TEWEN  =     -6074.94417597
  -Hartree energ DENC   =     -1948.46716164
  -exchange      EXHF   =         0.00000000
  -V(xc)+E(xc)   XCENC  =       132.02590442
  PAW double counting   =     10424.22253871   -10571.44173030
  entropy T*S    EENTRO =        -0.00990859
  eigenvalues    EBANDS =      -941.95568170
  atomic energy  EATOM  =      8394.63709520
  Solvation  Ediel_sol  =         0.00000000
  ---------------------------------------------------
  free energy    TOTEN  =       -80.83106406 eV

  energy without entropy =      -80.82115547  energy(sigma->0) =      -80.82610977


--------------------------------------------------------------------------------------------------------




----------------------------------------- Iteration    1(  15)  ---------------------------------------


    POTLOK:  cpu time    0.0970: real time    0.0978
    SETDIJ:  cpu time    0.1760: real time    0.1766
     EDDAV:  cpu time    7.0309: real time    7.0480
       DOS:  cpu time    0.0030: real time    0.0031
    CHARGE:  cpu time    0.4369: real time    0.4398
    MIXING:  cpu time    0.0030: real time    0.0028
    --------------------------------------------
      LOOP:  cpu time    7.7508: real time    7.7833

 eigenvalue-minimisations  : 11244
 total energy-change (2. order) :-0.3132653E-03  (-0.5810833E-04)
 number of electron     105.0000001 magnetization       0.4137085
 augmentation part       13.0370968 magnetization       0.0723838

 Broyden mixing:
  rms(total) = 0.96088E-02    rms(broyden)= 0.96088E-02
  rms(prec ) = 0.11977E-01
  weight for this iteration     100.00

 eigenvalues of (default mixing * dielectric matrix)
  average eigenvalue GAMMA=   3.2816
  9.8068  6.9140  4.1840  3.3045  2.6401  1.8869  1.0822  1.0822  0.9576  0.9576

 Free energy of the ion-electron system (eV)
  ---------------------------------------------------
  alpha Z        PSCENC =       505.10205580
  Ewald energy   TEWEN  =     -6074.94417597
  -Hartree energ DENC   =     -1948.47465371
  -exchange      EXHF   =         0.00000000
  -V(xc)+E(xc)   XCENC  =       132.03145191
  PAW double counting   =     10431.82508405   -10579.02636469
  entropy T*S    EENTRO =        -0.00992615
  eigenvalues    EBANDS =      -941.97194376
  atomic energy  EATOM  =      8394.63709520
  Solvation  Ediel_sol  =         0.00000000
  ---------------------------------------------------
  free energy    TOTEN  =       -80.83137733 eV

  energy without entropy =      -80.82145117  energy(sigma->0) =      -80.82641425


--------------------------------------------------------------------------------------------------------




----------------------------------------- Iteration    1(  16)  ---------------------------------------


    POTLOK:  cpu time    0.0980: real time    0.0987
    SETDIJ:  cpu time    0.1760: real time    0.1765
     EDDAV:  cpu time    6.5650: real time    6.5795
       DOS:  cpu time    0.0030: real time    0.0033
    --------------------------------------------
      LOOP:  cpu time    6.8450: real time    6.8729

 eigenvalue-minimisations  : 10116
 total energy-change (2. order) :-0.6994547E-04  (-0.3258795E-04)
 number of electron     105.0000001 magnetization       0.4137085
 augmentation part       13.0370968 magnetization       0.0723838

 Free energy of the ion-electron system (eV)
  ---------------------------------------------------
  alpha Z        PSCENC =       505.10205580
  Ewald energy   TEWEN  =     -6074.94417597
  -Hartree energ DENC   =     -1948.74702194
  -exchange      EXHF   =         0.00000000
  -V(xc)+E(xc)   XCENC  =       132.04444643
  PAW double counting   =     10450.42002298   -10597.62988643
  entropy T*S    EENTRO =        -0.00998162
  eigenvalues    EBANDS =      -941.70400172
  atomic energy  EATOM  =      8394.63709520
  Solvation  Ediel_sol  =         0.00000000
  ---------------------------------------------------
  free energy    TOTEN  =       -80.83144727 eV

  energy without entropy =      -80.82146565  energy(sigma->0) =      -80.82645646


--------------------------------------------------------------------------------------------------------




 average (electrostatic) potential at core
  the test charge radii are     1.1760  1.0314  1.0808
  (the norm of the test charge is              1.0000)
       1 -39.2418       2 -39.2418       3 -39.2418       4 -39.2418       5 -66.5100
       6 -53.9379       7 -53.9379       8 -53.9379       9 -53.9379      10 -54.0849
      11 -54.0849      12 -54.0849      13 -54.0849
 
 
 
 E-fermi :   4.8812     XC(G=0): -10.1934     alpha+bet : -9.9306


 spin component 1

 k-point     1 :       0.0000    0.0000    0.0000
  band No.  band energies     occupation 
      1     -31.1024      1.00000
      2     -30.9001      1.00000
      3     -30.9001      1.00000
      4     -30.9001      1.00000
      5     -30.8128      1.00000
      6     -30.8128      1.00000
      7     -30.6967      1.00000
      8     -30.6967      1.00000
      9     -30.6967      1.00000
     10     -30.6893      1.00000
     11     -30.6893      1.00000
     12     -30.6893      1.00000
     13     -12.9185      1.00000
     14     -12.9185      1.00000
     15     -12.9185      1.00000
     16     -12.7983      1.00000
     17     -12.7983      1.00000
     18     -10.0935      1.00000
     19      -8.7625      1.00000
     20      -8.5247      1.00000
     21      -8.5247      1.00000
     22      -8.5247      1.00000
     23      -8.4318      1.00000
     24      -8.4318      1.00000
     25      -8.4318      1.00000
     26      -3.3565      1.00000
     27      -1.6850      1.00000
     28      -1.6850      1.00000
     29      -1.6850      1.00000
     30      -1.3230      1.00000
     31      -0.1821      1.00000
     32      -0.1821      1.00000
     33       1.2384      1.00000
     34       1.2384      1.00000
     35       1.2384      1.00000
     36       1.3463      1.00000
     37       1.3463      1.00000
     38       1.3463      1.00000
     39       1.6460      1.00000
     40       1.6460      1.00000
     41       1.7748      1.00000
     42       1.7748      1.00000
     43       1.7748      1.00000
     44       2.2567      1.00000
     45       2.2567      1.00000
     46       2.2567      1.00000
     47       2.2689      1.00000
     48       3.3407      1.00000
     49       3.3407      1.00000
     50       3.3407      1.00000
     51       3.6614      1.00000
     52       3.6614      1.00000
     53       4.9239      0.11339
     54       4.9239      0.11339
     55       4.9239      0.11339
     56       4.9697      0.00615
     57       6.9147      0.00000
     58       6.9147      0.00000
     59       6.9147      0.00000
     60       7.3488      0.00000
     61       7.3488      0.00000
     62       7.3488      0.00000
     63       7.4360      0.00000
     64       7.4360      0.00000
     65       7.4360      0.00000
     66       7.6247      0.00000
     67       7.8416      0.00000
     68       7.8416      0.00000
     69       7.8664      0.00000
     70       7.8664      0.00000
     71       7.8664      0.00000
     72       8.8969      0.00000

 k-point     2 :       0.1111    0.0000    0.0000
  band No.  band energies     occupation 
      1     -31.1018      1.00000
      2     -30.9000      1.00000
      3     -30.8998      1.00000
      4     -30.8998      1.00000
      5     -30.8127      1.00000
      6     -30.8127      1.00000
      7     -30.6975      1.00000
      8     -30.6968      1.00000
      9     -30.6968      1.00000
     10     -30.6895      1.00000
     11     -30.6895      1.00000
     12     -30.6893      1.00000
     13     -12.9187      1.00000
     14     -12.9185      1.00000
     15     -12.9185      1.00000
     16     -12.7983      1.00000
     17     -12.7983      1.00000
     18     -10.0581      1.00000
     19      -8.7781      1.00000
     20      -8.5588      1.00000
     21      -8.5296      1.00000
     22      -8.5296      1.00000
     23      -8.4480      1.00000
     24      -8.4280      1.00000
     25      -8.4280      1.00000
     26      -3.2816      1.00000
     27      -1.6323      1.00000
     28      -1.6323      1.00000
     29      -1.5914      1.00000
     30      -1.3028      1.00000
     31      -0.1865      1.00000
     32      -0.1865      1.00000
     33       1.0215      1.00000
     34       1.1822      1.00000
     35       1.1822      1.00000
     36       1.2494      1.00000
     37       1.3301      1.00000
     38       1.3301      1.00000
     39       1.6345      1.00000
     40       1.6345      1.00000
     41       1.7246      1.00000
     42       1.7761      1.00000
     43       1.7761      1.00000
     44       2.1931      1.00000
     45       2.1931      1.00000
     46       2.3183      1.00000
     47       2.3446      1.00000
     48       3.1587      1.00000
     49       3.2971      1.00000
     50       3.2971      1.00000
     51       3.7409      1.00000
     52       3.7409      1.00000
     53       4.9318      0.07592
     54       4.9495      0.02672
     55       4.9495      0.02672
     56       5.0745      0.00000
     57       6.9249      0.00000
     58       6.9275      0.00000
     59       6.9275      0.00000
     60       7.2346      0.00000
     61       7.2346      0.00000
     62       7.4477      0.00000
     63       7.4501      0.00000
     64       7.4563      0.00000
     65       7.4563      0.00000
     66       7.6772      0.00000
     67       7.6772      0.00000
     68       7.7646      0.00000
     69       7.9837      0.00000
     70       8.2620      0.00000
     71       8.2620      0.00000
     72       8.8615      0.00000

 k-point     3 :       0.2222    0.0000    0.0000
  band No.  band energies     occupation 
      1     -31.1003      1.00000
      2     -30.8997      1.00000
      3     -30.8991      1.00000
      4     -30.8991      1.00000
      5     -30.8125      1.00000
      6     -30.8125      1.00000
      7     -30.6995      1.00000
      8     -30.6972      1.00000
      9     -30.6972      1.00000
     10     -30.6901      1.00000
     11     -30.6901      1.00000
     12     -30.6893      1.00000
     13     -12.9191      1.00000
     14     -12.9185      1.00000
     15     -12.9185      1.00000
     16     -12.7983      1.00000
     17     -12.7983      1.00000
     18      -9.9542      1.00000
     19      -8.8464      1.00000
     20      -8.6629      1.00000
     21      -8.5406      1.00000
     22      -8.5406      1.00000
     23      -8.4539      1.00000
     24      -8.4198      1.00000
     25      -8.4198      1.00000
     26      -3.0773      1.00000
     27      -1.4814      1.00000
     28      -1.4814      1.00000
     29      -1.3772      1.00000
     30      -1.1972      1.00000
     31      -0.2023      1.00000
     32      -0.2023      1.00000
     33       0.5180      1.00000
     34       0.9558      1.00000
     35       0.9558      1.00000
     36       1.0950      1.00000
     37       1.3560      1.00000
     38       1.3560      1.00000
     39       1.5714      1.00000
     40       1.5714      1.00000
     41       1.6296      1.00000
     42       1.7344      1.00000
     43       1.7344      1.00000
     44       2.1849      1.00000
     45       2.1849      1.00000
     46       2.2046      1.00000
     47       2.4428      1.00000
     48       2.9366      1.00000
     49       3.1835      1.00000
     50       3.1835      1.00000
     51       3.8807      1.00000
     52       3.8807      1.00000
     53       4.9486      0.02825
     54       5.0026      0.00030
     55       5.0026      0.00030
     56       5.2478      0.00000
     57       6.8800      0.00000
     58       6.8800      0.00000
     59       7.0112      0.00000
     60       7.0774      0.00000
     61       7.0774      0.00000
     62       7.4374      0.00000
     63       7.4374      0.00000
     64       7.4826      0.00000
     65       7.6765      0.00000
     66       7.9614      0.00000
     67       7.9875      0.00000
     68       7.9875      0.00000
     69       8.4114      0.00000
     70       8.4114      0.00000
     71       8.4828      0.00000
     72       8.6487      0.00000

 k-point     4 :       0.3333    0.0000    0.0000
  band No.  band energies     occupation 
      1     -31.0986      1.00000
      2     -30.8994      1.00000
      3     -30.8983      1.00000
      4     -30.8983      1.00000
      5     -30.8123      1.00000
      6     -30.8123      1.00000
      7     -30.7017      1.00000
      8     -30.6976      1.00000
      9     -30.6976      1.00000
     10     -30.6907      1.00000
     11     -30.6907      1.00000
     12     -30.6893      1.00000
     13     -12.9196      1.00000
     14     -12.9184      1.00000
     15     -12.9184      1.00000
     16     -12.7984      1.00000
     17     -12.7984      1.00000
     18      -9.7910      1.00000
     19      -9.0267      1.00000
     20      -8.7312      1.00000
     21      -8.5516      1.00000
     22      -8.5516      1.00000
     23      -8.4491      1.00000
     24      -8.4121      1.00000
     25      -8.4121      1.00000
     26      -2.8023      1.00000
     27      -1.3033      1.00000
     28      -1.2593      1.00000
     29      -1.2593      1.00000
     30      -0.8287      1.00000
     31      -0.2445      1.00000
     32      -0.2445      1.00000
     33       0.0467      1.00000
     34       0.6589      1.00000
     35       0.6589      1.00000
     36       0.8977      1.00000
     37       1.2976      1.00000
     38       1.2976      1.00000
     39       1.5309      1.00000
     40       1.5309      1.00000
     41       1.5483      1.00000
     42       1.6384      1.00000
     43       1.7366      1.00000
     44       1.7366      1.00000
     45       2.2903      1.00000
     46       2.2903      1.00000
     47       2.5584      1.00000
     48       3.0111      1.00000
     49       3.0212      1.00000
     50       3.0212      1.00000
     51       3.9820      1.00000
     52       3.9820      1.00000
     53       4.9189      0.14303
     54       5.0440      0.00000
     55       5.0440      0.00000
     56       5.3503      0.00000
     57       6.7977      0.00000
     58       6.7977      0.00000
     59       7.0886      0.00000
     60       7.0983      0.00000
     61       7.0983      0.00000
     62       7.3986      0.00000
     63       7.3986      0.00000
     64       7.5358      0.00000
     65       7.9389      0.00000
     66       8.1043      0.00000
     67       8.1043      0.00000
     68       8.4447      0.00000
     69       8.4519      0.00000
     70       8.6748      0.00000
     71       8.6748      0.00000
     72       8.9720      0.00000

[...]
     36       0.6070      1.00000
     37       0.6996      1.00000
     38       1.0135      1.00000
     39       1.0485      1.00000
     40       1.2138      1.00000
     41       1.4129      1.00000
     42       1.5110      1.00000
     43       1.5634      1.00000
     44       1.8042      1.00000
     45       2.0369      1.00000
     46       2.1956      1.00000
     47       2.3450      1.00000
     48       2.5212      1.00000
     49       2.6411      1.00000
     50       3.5214      1.00000
     51       4.1927      1.00000
     52       4.3174      1.00000
     53       4.8293      0.93488
     54       5.1499      0.00000
     55       5.2503      0.00000
     56       6.2935      0.00000
     57       6.7560      0.00000
     58       6.8405      0.00000
     59       6.9352      0.00000
     60       7.1468      0.00000
     61       7.4332      0.00000
     62       7.4610      0.00000
     63       7.5154      0.00000
     64       7.5572      0.00000
     65       8.0022      0.00000
     66       8.0831      0.00000
     67       8.2461      0.00000
     68       8.2977      0.00000
     69       8.7967      0.00000
     70       9.0166      0.00000
     71       9.4522      0.00000
     72       9.9792      0.00000

 k-point    35 :      -0.3333    0.4444    0.2222
  band No.  band energies     occupation 
      1     -31.0496      1.00000
      2     -30.8588      1.00000
      3     -30.8559      1.00000
      4     -30.8551      1.00000
      5     -30.7742      1.00000
      6     -30.7729      1.00000
      7     -30.6630      1.00000
      8     -30.6604      1.00000
      9     -30.6593      1.00000
     10     -30.6543      1.00000
     11     -30.6540      1.00000
     12     -30.6536      1.00000
     13     -12.9195      1.00000
     14     -12.9175      1.00000
     15     -12.9175      1.00000
     16     -12.7978      1.00000
     17     -12.7978      1.00000
     18      -9.3258      1.00000
     19      -9.0788      1.00000
     20      -8.9999      1.00000
     21      -8.9825      1.00000
     22      -8.4993      1.00000
     23      -8.4442      1.00000
     24      -8.4059      1.00000
     25      -8.3228      1.00000
     26      -2.2056      1.00000
     27      -1.0580      1.00000
     28      -0.8933      1.00000
     29      -0.8070      1.00000
     30      -0.4417      1.00000
     31      -0.2533      1.00000
     32      -0.0568      1.00000
     33       0.0100      1.00000
     34       0.3030      1.00000
     35       0.4108      1.00000
     36       0.6588      1.00000
     37       0.6903      1.00000
     38       1.0711      1.00000
     39       1.1716      1.00000
     40       1.2959      1.00000
     41       1.4037      1.00000
     42       1.5196      1.00000
     43       1.5877      1.00000
     44       1.7747      1.00000
     45       1.9700      1.00000
     46       2.2349      1.00000
     47       2.3209      1.00000
     48       2.5277      1.00000
     49       2.5974      1.00000
     50       3.5800      1.00000
     51       4.1600      1.00000
     52       4.3168      1.00000
     53       4.8998      0.31609
     54       5.0851      0.00000
     55       5.2437      0.00000
     56       6.2879      0.00000
     57       6.8008      0.00000
     58       6.8837      0.00000
     59       6.9025      0.00000
     60       7.1066      0.00000
     61       7.3891      0.00000
     62       7.4601      0.00000
     63       7.4810      0.00000
     64       7.5634      0.00000
     65       8.0239      0.00000
     66       8.1066      0.00000
     67       8.1805      0.00000
     68       8.3353      0.00000
     69       8.8634      0.00000
     70       8.9387      0.00000
     71       9.5601      0.00000
     72       9.9577      0.00000


--------------------------------------------------------------------------------------------------------


 soft charge-density along one line, spin component           1
         0         1         2         3         4         5         6         7         8         9
 total charge-density along one line
 
 soft charge-density along one line, spin component           2
         0         1         2         3         4         5         6         7         8         9
 total charge-density along one line
 
 pseudopotential strength for first ion, spin component:           1
-32.923   0.014  -0.014   8.685  -0.011   0.011   0.011  -0.011
  0.014 -32.923   0.014  -0.011   8.685  -0.011  -0.000   0.011
 -0.014   0.014 -32.923   0.011  -0.011   8.685   0.011  -0.000
  8.685  -0.011   0.011   5.810   0.004  -0.004  -0.005   0.005
 -0.011   8.685  -0.011   0.004   5.810   0.004   0.000  -0.005
  0.011  -0.011   8.685  -0.004   0.004   5.810  -0.005   0.000
  0.011  -0.000   0.011  -0.005   0.000  -0.005  -6.698  -0.011
 -0.011   0.011  -0.000   0.005  -0.005   0.000  -0.011  -6.698
 -0.003  -0.006  -0.003   0.001   0.002   0.001   0.002   0.001
 -0.000   0.011  -0.011   0.000  -0.005   0.005  -0.011   0.011
 -0.005   0.000   0.005   0.002  -0.000  -0.002  -0.000  -0.002
  0.013  -0.000   0.013  -0.006   0.000  -0.006  -8.185  -0.013
 -0.013   0.013  -0.000   0.006  -0.006   0.000  -0.013  -8.185
 -0.004  -0.008  -0.004   0.001   0.003   0.001   0.003   0.001
 -0.000   0.013  -0.013   0.000  -0.006   0.006  -0.013   0.013
 -0.007   0.000   0.007   0.002  -0.000  -0.002  -0.000  -0.002
  0.002  -0.002   0.002  -0.004   0.004  -0.004   0.004  -0.004
  0.005  -0.005   0.005  -0.009   0.009  -0.009   0.008  -0.008
 pseudopotential strength for first ion, spin component:           2
-32.911   0.014  -0.014   8.674  -0.010   0.010   0.010  -0.010
  0.014 -32.911   0.014  -0.010   8.674  -0.010  -0.000   0.010
 -0.014   0.014 -32.911   0.010  -0.010   8.674   0.010  -0.000
  8.674  -0.010   0.010   5.811   0.004  -0.004  -0.005   0.005
 -0.010   8.674  -0.010   0.004   5.811   0.004   0.000  -0.005
  0.010  -0.010   8.674  -0.004   0.004   5.811  -0.005   0.000
  0.010  -0.000   0.010  -0.005   0.000  -0.005  -6.669  -0.013
 -0.010   0.010  -0.000   0.005  -0.005   0.000  -0.013  -6.669
 -0.003  -0.006  -0.003   0.001   0.002   0.001   0.001   0.000
 -0.000   0.010  -0.010   0.000  -0.005   0.005  -0.013   0.013
 -0.005   0.000   0.005   0.002  -0.000  -0.002  -0.000  -0.000
  0.013  -0.000   0.013  -0.006   0.001  -0.006  -8.149  -0.015
 -0.013   0.013  -0.000   0.006  -0.006   0.001  -0.015  -8.149
 -0.004  -0.008  -0.004   0.001   0.003   0.001   0.001   0.000
 -0.000   0.013  -0.013   0.001  -0.006   0.006  -0.015   0.015
 -0.007   0.000   0.007   0.002  -0.000  -0.002  -0.000  -0.001
  0.002  -0.002   0.002  -0.005   0.005  -0.005   0.004  -0.004
  0.006  -0.006   0.006  -0.009   0.009  -0.009   0.008  -0.008
 total augmentation occupancy for first ion, spin component:           1
  1.993   0.000  -0.000  -0.027  -0.000   0.000   0.015  -0.015  -0.021  -0.002  -0.036  -0.013   0.013   0.019   0.002   0.032
  0.000   1.993   0.000  -0.000  -0.027  -0.000  -0.002   0.015  -0.041   0.015   0.000   0.002  -0.013   0.037  -0.013   0.000
 -0.000   0.000   1.993   0.000  -0.000  -0.027   0.015  -0.002  -0.021  -0.015   0.036  -0.013   0.002   0.019   0.013  -0.032
 -0.027  -0.000   0.000   0.144  -0.002   0.002   0.003  -0.003  -0.118  -0.018  -0.204   0.003  -0.003   0.070   0.011   0.121
 -0.000  -0.027  -0.000  -0.002   0.144  -0.002  -0.018   0.003  -0.236   0.003   0.000   0.011   0.003   0.140   0.003   0.000
  0.000  -0.000  -0.027   0.002  -0.002   0.144   0.003  -0.018  -0.118  -0.003   0.204   0.003   0.011   0.070  -0.003  -0.121
  0.015  -0.002   0.015   0.003  -0.018   0.003   3.591  -0.122   0.063  -0.122   0.000  -1.732   0.110  -0.043   0.110   0.000
 -0.015   0.015  -0.002  -0.003   0.003  -0.018  -0.122   3.591   0.031   0.122  -0.054   0.110  -1.732  -0.022  -0.110   0.038
 -0.021  -0.041  -0.021  -0.118  -0.236  -0.118   0.063   0.031   6.332   0.031  -0.000  -0.042  -0.021  -3.703  -0.021   0.000
 -0.002   0.015  -0.015  -0.018   0.003  -0.003  -0.122   0.122   0.031   3.591   0.054   0.110  -0.110  -0.022  -1.732  -0.038
 -0.036   0.000   0.036  -0.204   0.000   0.204  -0.000  -0.054   0.000   0.054   6.332  -0.000   0.037  -0.000  -0.037  -3.703
 -0.013   0.002  -0.013   0.003   0.011   0.003  -1.732   0.110  -0.042   0.110  -0.000   0.905  -0.072   0.030  -0.072   0.000
  0.013  -0.013   0.002  -0.003   0.003   0.011   0.110  -1.732  -0.021  -0.110   0.037  -0.072   0.905   0.015   0.072  -0.026
  0.019   0.037   0.019   0.070   0.140   0.070  -0.043  -0.022  -3.703  -0.022   0.000   0.030   0.015   2.210   0.015   0.000
  0.002  -0.013   0.013   0.011   0.003  -0.003   0.110  -0.110  -0.021  -1.732  -0.037  -0.072   0.072   0.015   0.905   0.026
  0.032   0.000  -0.032   0.121   0.000  -0.121   0.000   0.038   0.000  -0.038  -3.703   0.000  -0.026   0.000   0.026   2.210
  0.041  -0.041   0.041   0.048  -0.048   0.048  -0.014   0.014   0.000   0.014   0.000  -0.009   0.009  -0.000   0.009   0.000
 -0.024   0.024  -0.024  -0.004   0.004  -0.004   0.024  -0.024  -0.000  -0.024  -0.000  -0.009   0.009  -0.000   0.009   0.000
 total augmentation occupancy for first ion, spin component:           2
  0.000  -0.000   0.000   0.000  -0.000   0.000   0.000  -0.000  -0.000   0.000  -0.000  -0.000   0.000   0.000  -0.000   0.000
 -0.000   0.000  -0.000  -0.000   0.000  -0.000   0.000   0.000  -0.000   0.000   0.000  -0.000  -0.000   0.000  -0.000   0.000
  0.000  -0.000   0.000   0.000  -0.000   0.000   0.000   0.000  -0.000  -0.000   0.000  -0.000  -0.000   0.000   0.000  -0.000
  0.000  -0.000   0.000   0.001  -0.000   0.000   0.001  -0.001  -0.000   0.000  -0.000  -0.000   0.000   0.000  -0.000   0.000
 -0.000   0.000  -0.000  -0.000   0.001  -0.000   0.000   0.001  -0.000   0.001   0.000  -0.000  -0.000   0.000  -0.000  -0.000
  0.000  -0.000   0.000   0.000  -0.000   0.001   0.001   0.000  -0.000  -0.001   0.000  -0.000  -0.000   0.000   0.000  -0.000
  0.000   0.000   0.000   0.001   0.000   0.001   0.037  -0.000  -0.004  -0.000   0.000  -0.002  -0.001   0.001  -0.001   0.000
 -0.000   0.000   0.000  -0.001   0.001   0.000  -0.000   0.037  -0.002   0.000   0.004  -0.001  -0.002   0.001   0.001  -0.001
 -0.000  -0.000  -0.000  -0.000  -0.000  -0.000  -0.004  -0.002   0.004  -0.002  -0.000   0.002   0.001   0.001   0.001   0.000
  0.000   0.000  -0.000   0.000   0.001  -0.001  -0.000   0.000  -0.002   0.037  -0.004  -0.001   0.001   0.001  -0.002   0.001
 -0.000   0.000   0.000  -0.000   0.000   0.000  -0.000   0.004   0.000  -0.004   0.004   0.000  -0.002  -0.000   0.002   0.001
 -0.000  -0.000  -0.000  -0.000  -0.000  -0.000  -0.002  -0.001   0.002  -0.001  -0.000  -0.001   0.000  -0.001   0.000   0.000
  0.000  -0.000  -0.000   0.000  -0.000  -0.000  -0.001  -0.002   0.001   0.001  -0.002   0.000  -0.001  -0.000  -0.000   0.001
  0.000   0.000   0.000   0.000   0.000   0.000   0.001   0.001   0.001   0.001   0.000  -0.001  -0.000  -0.002  -0.000  -0.000
 -0.000  -0.000   0.000  -0.000  -0.000   0.000  -0.001   0.001   0.001  -0.002   0.002   0.000  -0.000  -0.000  -0.001  -0.001
  0.000   0.000  -0.000   0.000  -0.000  -0.000   0.000  -0.001   0.000   0.001   0.001   0.000   0.001  -0.000  -0.001  -0.002
  0.001  -0.001   0.001  -0.001   0.001  -0.001  -0.003   0.003  -0.000   0.003  -0.000   0.000  -0.000   0.000  -0.000   0.000
 -0.000   0.000  -0.000   0.000  -0.000   0.000   0.002  -0.002  -0.000  -0.002   0.000  -0.000   0.000   0.000   0.000   0.000


------------------------ aborting loop because EDIFF is reached ----------------------------------------


    CHARGE:  cpu time    0.4399: real time    0.4424
    FORLOC:  cpu time    0.0040: real time    0.0038
    FORNL :  cpu time    2.2157: real time    2.2218
    STRESS:  cpu time    4.4963: real time    4.5127
    FORCOR:  cpu time    0.0940: real time    0.0939
    FORHAR:  cpu time    0.0140: real time    0.0134
    MIXING:  cpu time    0.0010: real time    0.0012
    OFIELD:  cpu time    0.0000: real time    0.0000

  FORCE on cell =-STRESS in cart. coord.  units (eV):
  Direction    XX          YY          ZZ          XY          YZ          ZX
  --------------------------------------------------------------------------------------
  Alpha Z   505.03505   505.03505   505.03505
  Ewald   -2025.35115 -2025.35115 -2025.35115     0.00000     0.00000     0.00000
  Hartree   649.16344   649.16344   649.16344     0.00000     0.00000     0.00000
  E(xc)    -444.59833  -444.59833  -444.59833     0.00000     0.00000     0.00000
  Local    -164.12101  -164.12101  -164.12101     0.00017     0.00017     0.00017
  n-local   157.38045   156.77591   162.17558     1.14125    -0.96111     0.58420
  augment   176.69387   176.69387   176.69387    -0.00015    -0.00015    -0.00015
  Kinetic  1148.88487  1151.86588  1132.45055     4.01857    -4.53806     3.11441
  Fock        0.00000     0.00000     0.00000     0.00000     0.00000     0.00000
  -------------------------------------------------------------------------------------
  Total      -0.00037    -0.00037    -0.00037     0.00000     0.00000    -0.00000
  in kB      -0.00204    -0.00204    -0.00204     0.00000     0.00000    -0.00000
  external pressure =       -0.00 kB  Pullay stress =        0.00 kB


 VOLUME and BASIS-vectors are now :
 -----------------------------------------------------------------------------
  energy-cutoff  :      520.00
  volume of cell :      291.58
      direct lattice vectors                 reciprocal lattice vectors
     0.000000000  5.263137927  5.263137927    -0.095000360  0.095000360  0.095000360
     5.263137927 -0.000000000  5.263137927     0.095000360 -0.095000360  0.095000360
     5.263137927  5.263137927 -0.000000000     0.095000360  0.095000360 -0.095000360

  length of vectors
     7.443201037  7.443201037  7.443201037     0.164545451  0.164545451  0.164545451


 FORCES acting on ions
    electron-ion (+dipol)            ewald-force                    non-local-force                 convergence-correction
 -----------------------------------------------------------------------------------------------
   0.106E+03 0.106E+03 -.106E+03   -.105E+03 -.105E+03 0.105E+03   -.101E+01 -.101E+01 0.101E+01   0.347E-03 0.347E-03 -.347E-03
   0.106E+03 -.106E+03 0.106E+03   -.105E+03 0.105E+03 -.105E+03   -.101E+01 0.101E+01 -.101E+01   0.347E-03 -.347E-03 0.347E-03
   -.106E+03 0.106E+03 0.106E+03   0.105E+03 -.105E+03 -.105E+03   0.101E+01 -.101E+01 -.101E+01   -.347E-03 0.347E-03 0.347E-03
   -.106E+03 -.106E+03 -.106E+03   0.105E+03 0.105E+03 0.105E+03   0.101E+01 0.101E+01 0.101E+01   -.347E-03 -.347E-03 -.347E-03
   -.211E-06 -.211E-06 -.199E-06   -.190E-11 -.202E-11 -.209E-11   0.125E-15 0.971E-16 0.937E-16   -.119E-08 -.119E-08 -.119E-08
   -.121E+03 -.121E+03 0.121E+03   0.122E+03 0.122E+03 -.122E+03   -.521E+00 -.521E+00 0.521E+00   -.147E-03 -.147E-03 0.147E-03
   -.121E+03 0.121E+03 -.121E+03   0.122E+03 -.122E+03 0.122E+03   -.521E+00 0.521E+00 -.521E+00   -.147E-03 0.147E-03 -.147E-03
   0.121E+03 -.121E+03 -.121E+03   -.122E+03 0.122E+03 0.122E+03   0.521E+00 -.521E+00 -.521E+00   0.147E-03 -.147E-03 -.147E-03
   0.121E+03 0.121E+03 0.121E+03   -.122E+03 -.122E+03 -.122E+03   0.521E+00 0.521E+00 0.521E+00   0.147E-03 0.147E-03 0.147E-03
   -.267E+01 -.267E+01 0.267E+01   0.337E+01 0.337E+01 -.337E+01   -.702E+00 -.702E+00 0.702E+00   0.303E-04 0.303E-04 -.303E-04
   -.267E+01 0.267E+01 -.267E+01   0.337E+01 -.337E+01 0.337E+01   -.702E+00 0.702E+00 -.702E+00   0.303E-04 -.303E-04 0.303E-04
   0.267E+01 -.267E+01 -.267E+01   -.337E+01 0.337E+01 0.337E+01   0.702E+00 -.702E+00 -.702E+00   -.303E-04 0.303E-04 0.303E-04
   0.267E+01 0.267E+01 0.267E+01   -.337E+01 -.337E+01 -.337E+01   0.702E+00 0.702E+00 0.702E+00   -.303E-04 -.303E-04 -.303E-04
 -----------------------------------------------------------------------------------------------
   -.233E-06 -.233E-06 -.164E-06   -.284E-13 0.244E-13 -.178E-14   0.178E-14 0.167E-14 0.178E-14   -.942E-09 -.942E-09 -.935E-09
 
 
 POSITION                                       TOTAL-FORCE (eV/Angst)
 -----------------------------------------------------------------------------------
      4.18480      4.18480      6.34148         0.000082      0.000082     -0.000082
      4.18480      6.34148      4.18480         0.000082     -0.000082      0.000082
      6.34148      4.18480      4.18480        -0.000082      0.000082      0.000082
      6.34148      6.34148      6.34148        -0.000082     -0.000082     -0.000082
      0.00000      0.00000      0.00000        -0.000000     -0.000000      0.000000
      6.69486      6.69486      3.83141        -0.000049     -0.000049      0.000049
      6.69486      3.83141      6.69486        -0.000049      0.000049     -0.000049
      3.83141      6.69486      6.69486         0.000049     -0.000049     -0.000049
      3.83141      3.83141      3.83141         0.000049      0.000049      0.000049
      6.68426      6.68426      9.10516        -0.000222     -0.000222      0.000222
      6.68426      9.10516      6.68426        -0.000222      0.000222     -0.000222
      9.10516      6.68426      6.68426         0.000222     -0.000222     -0.000222
      9.10516      9.10516      9.10516         0.000222      0.000222      0.000222
 -----------------------------------------------------------------------------------
    total drift:                               -0.000000     -0.000000     -0.000000


--------------------------------------------------------------------------------------------------------



  FREE ENERGIE OF THE ION-ELECTRON SYSTEM (eV)
  ---------------------------------------------------
  free  energy   TOTEN  =       -80.83160341 eV

  energy  without entropy=      -80.82136937  energy(sigma->0) =      -80.82648639
 
 d Force = 0.1600026E-06[ 0.341E-07, 0.286E-06]  d Energy = 0.7488761E-06-0.589E-06
 d Force =-0.3799315E-01[-0.380E-01,-0.380E-01]  d Ewald  = 0.5178573E-01-0.898E-01


--------------------------------------------------------------------------------------------------------


    POTLOK:  cpu time    0.2770: real time    0.2780


--------------------------------------------------------------------------------------------------------


 Conjugate gradient step on ions:
 trial-energy change:   -0.000001  1 .order   -0.000000   -0.000001   -0.000000
  (g-gl).g =-0.212E-06      g.g   = 0.300E-06  gl.gl    = 0.749E-05
 g(Force)  = 0.770E-07   g(Stress)= 0.223E-06 ortho     =-0.738E-09
 gamma     =  -0.02828
 trial     =   3.04513
 opt step  =   3.22380  (harmonic =   3.22380) maximal distance =0.00001811
 next E    =   -80.831603   (d E  =  -0.00000)


--------------------------------------------------------------------------------------------------------


  
 reached required accuracy - stopping structural energy minimisation
     LOOP+:  cpu time   39.0551: real time   39.2560
    4ORBIT:  cpu time    0.0000: real time    0.0000

 total amount of memory used by VASP on root node    56991. kBytes
========================================================================

   base      :      30000. kBytes
   nonl-proj :      10116. kBytes
   fftplans  :       3956. kBytes
   grid      :       3503. kBytes
   one-center:         62. kBytes
   wavefun   :       9354. kBytes
 
  
  
 General timing and accounting informations for this job:
 ========================================================
  
                  Total CPU time used (sec):      729.447
                            User time (sec):      724.127
                          System time (sec):        5.320
                         Elapsed time (sec):      736.049
  
                   Maximum memory used (kb):      203300.
                   Average memory used (kb):           0.
  
                          Minor page faults:      1172911
                          Major page faults:          368
                 Voluntary context switches:        10647
