<?xml version="1.0" encoding="ISO-8859-1"?>
<modeling>
 <generator>
  <i name="program" type="string">vasp </i>
  <i name="version" type="string">5.4.1  </i>
  <i name="subversion" type="string">24Jun15 (build Nov 23 2015 09:58:10) complex                          parallel </i>
  <i name="platform" type="string">LinuxIFC </i>
  <i name="date" type="string">2020 05 21 </i>
  <i name="time" type="string">18:41:32 </i>
 </generator>
 <incar>
  <i type="int" name="ISTART">     0</i>
  <i type="string" name="PREC">accurate</i>
  <i type="string" name="ALGO"> Normal</i>
  <i type="logical" name="ADDGRID"> T  </i>
  <i type="int" name="ISPIN">     2</i>
  <i name="AMIX">      0.10000000</i>
  <i name="BMIX">      1.20000000</i>
  <i type="int" name="INIWAV">     1</i>
  <i type="int" name="NELM">    60</i>
  <i type="int" name="NELMIN">     6</i>
  <i type="int" name="IBRION">     2</i>
  <i name="EDIFF">      0.00010000</i>
  <i name="EDIFFG">     -0.00100000</i>
  <i type="int" name="NSW">    40</i>
  <i type="int" name="ISIF">     3</i>
  <i name="SYMPREC">      0.00010000</i>
  <i type="int" name="NBLOCK">     1</i>
  <i name="ENCUT">    520.00000000</i>
  <i name="POTIM">      0.05000000</i>
  <i type="logical" name="LREAL"> F  </i>
  <i type="int" name="ISMEAR">     0</i>
  <i name="SIGMA">      0.05000000</i>
  <i type="logical" name="LCORR"> T  </i>
  <i type="int" name="LMAXMIX">     4</i>
  <i type="logical" name="LWAVE"> F  </i>
  <i type="logical" name="LCHARG"> F  </i>
  <v type="int" name="KPOINT_BSE">    -1     0     0     0</v>
  <i type="int" name="NELM">    60</i>
  <i type="logical" name="LDAU"> T  </i>
  <v type="int" name="LDAUTYPE">     2</v>
  <v type="int" name="LDAUL">     2     2    -1</v>
  <v name="LDAUU">      2.00000000      3.90000000      0.00000000</v>
  <v name="LDAUJ">      0.00000000      0.00000000      0.00000000</v>
 </incar>
 <kpoints>
  <generation param="Gamma">
   <v type="int" name="divisions">       9        9        9 </v>
   <v name="usershift">      0.00000000       0.00000000       0.00000000 </v>
   <v name="genvec1">      0.11111111       0.00000000       0.00000000 </v>
   <v name="genvec2">      0.00000000       0.11111111       0.00000000 </v>
   <v name="genvec3">      0.00000000       0.00000000       0.11111111 </v>
   <v name="shift">      0.00000000       0.00000000       0.00000000 </v>
  </generation>
  <varray name="kpointlist" >
   <v>       0.00000000       0.00000000       0.00000000 </v>
   <v>       0.11111111       0.00000000       0.00000000 </v>
   <v>       0.22222222       0.00000000       0.00000000 </v>
   <v>       0.33333333       0.00000000       0.00000000 </v>
   <v>       0.44444444       0.00000000       0.00000000 </v>
   <v>       0.11111111       0.11111111       0.00000000 </v>
   <v>       0.22222222       0.11111111       0.00000000 </v>
   <v>       0.33333333       0.11111111       0.00000000 </v>
   <v>       0.44444444       0.11111111       0.00000000 </v>
   <v>      -0.44444444       0.11111111       0.00000000 </v>
   <v>      -0.33333333       0.11111111       0.00000000 </v>
   <v>      -0.22222222       0.11111111       0.00000000 </v>
   <v>      -0.11111111       0.11111111       0.00000000 </v>
   <v>       0.22222222       0.22222222       0.00000000 </v>
   <v>       0.33333333       0.22222222       0.00000000 </v>
   <v>       0.44444444       0.22222222       0.00000000 </v>
   <v>      -0.44444444       0.22222222       0.00000000 </v>
   <v>      -0.33333333       0.22222222       0.00000000 </v>
   <v>      -0.22222222       0.22222222       0.00000000 </v>
   <v>       0.33333333       0.33333333       0.00000000 </v>
   <v>       0.44444444       0.33333333       0.00000000 </v>
   <v>      -0.44444444       0.33333333       0.00000000 </v>
   <v>      -0.33333333       0.33333333       0.00000000 </v>
   <v>       0.44444444       0.44444444       0.00000000 </v>
   <v>      -0.44444444       0.44444444       0.00000000 </v>
   <v>       0.33333333       0.22222222       0.11111111 </v>
   <v>       0.44444444       0.22222222       0.11111111 </v>
   <v>      -0.44444444       0.22222222       0.11111111 </v>
   <v>       0.44444444       0.33333333       0.11111111 </v>
   <v>      -0.44444444       0.33333333       0.11111111 </v>
   <v>      -0.33333333       0.33333333       0.11111111 </v>
   <v>      -0.22222222       0.33333333       0.11111111 </v>
   <v>      -0.44444444       0.44444444       0.11111111 </v>
   <v>      -0.33333333       0.44444444       0.11111111 </v>
   <v>      -0.33333333       0.44444444       0.22222222 </v>
  </varray>
  <varray name="weights" >
   <v>       0.00137174 </v>
   <v>       0.01097394 </v>
   <v>       0.01097394 </v>
   <v>       0.01097394 </v>
   <v>       0.01097394 </v>
   <v>       0.00823045 </v>
   <v>       0.03292181 </v>
   <v>       0.03292181 </v>
   <v>       0.03292181 </v>
   <v>       0.03292181 </v>
   <v>       0.03292181 </v>
   <v>       0.03292181 </v>
   <v>       0.01646091 </v>
   <v>       0.00823045 </v>
   <v>       0.03292181 </v>
   <v>       0.03292181 </v>
   <v>       0.03292181 </v>
   <v>       0.03292181 </v>
   <v>       0.01646091 </v>
   <v>       0.00823045 </v>
   <v>       0.03292181 </v>
   <v>       0.03292181 </v>
   <v>       0.01646091 </v>
   <v>       0.00823045 </v>
   <v>       0.01646091 </v>
   <v>       0.03292181 </v>
   <v>       0.06584362 </v>
   <v>       0.06584362 </v>
   <v>       0.03292181 </v>
   <v>       0.06584362 </v>
   <v>       0.06584362 </v>
   <v>       0.03292181 </v>
   <v>       0.03292181 </v>
   <v>       0.03292181 </v>
   <v>       0.03292181 </v>
  </varray>
 </kpoints>
 <parameters>
  <separator name="general" >
   <i type="string" name="SYSTEM">unknown system</i>
   <i type="logical" name="LCOMPAT"> F  </i>
  </separator>
  <separator name="electronic" >
   <i type="string" name="PREC">accura</i>
   <i name="ENMAX">    520.00000000</i>
   <i name="ENAUG">    490.69000000</i>
   <i name="EDIFF">      0.00010000</i>
   <i type="int" name="IALGO">    38</i>
   <i type="int" name="IWAVPR">    11</i>
   <i type="int" name="NBANDS">    72</i>
   <i name="NELECT">    105.00000000</i>
   <i type="int" name="TURBO">     0</i>
   <i type="int" name="IRESTART">     0</i>
   <i type="int" name="NREBOOT">     0</i>
   <i type="int" name="NMIN">     0</i>
   <i name="EREF">      0.00000000</i>
   <separator name="electronic smearing" >
    <i type="int" name="ISMEAR">     0</i>
    <i name="SIGMA">      0.05000000</i>
    <i name="KSPACING">      0.50000000</i>
    <i type="logical" name="KGAMMA"> T  </i>
   </separator>
   <separator name="electronic projectors" >
    <i type="logical" name="LREAL"> F  </i>
    <v name="ROPT">      0.00000000      0.00000000      0.00000000</v>
    <i type="int" name="LMAXPAW">  -100</i>
    <i type="int" name="LMAXMIX">     4</i>
    <i type="logical" name="NLSPLINE"> F  </i>
   </separator>
   <separator name="electronic startup" >
    <i type="int" name="ISTART">     0</i>
    <i type="int" name="ICHARG">     2</i>
    <i type="int" name="INIWAV">     1</i>
   </separator>
   <separator name="electronic spin" >
    <i type="int" name="ISPIN">     2</i>
    <i type="logical" name="LNONCOLLINEAR"> F  </i>
    <v name="MAGMOM">      1.00000000      1.00000000      1.00000000      1.00000000      1.00000000      1.00000000      1.00000000      1.00000000      1.00000000      1.00000000      1.00000000      1.00000000      1.00000000</v>
    <i name="NUPDOWN">     -1.00000000</i>
    <i type="logical" name="LSORBIT"> F  </i>
    <v name="SAXIS">      0.00000000      0.00000000      1.00000000</v>
    <i type="logical" name="LSPIRAL"> F  </i>
    <v name="QSPIRAL">      0.00000000      0.00000000      0.00000000</v>
    <i type="logical" name="LZEROZ"> F  </i>
   </separator>
   <separator name="electronic exchange-correlation" >
    <i type="logical" name="LASPH"> F  </i>
    <i type="logical" name="LMETAGGA"> F  </i>
   </separator>
   <separator name="electronic convergence" >
    <i type="int" name="NELM">    60</i>
    <i type="int" name="NELMDL">    -5</i>
    <i type="int" name="NELMIN">     6</i>
    <i name="ENINI">    520.00000000</i>
    <separator name="electronic convergence detail" >
     <i type="logical" name="LDIAG"> T  </i>
     <i type="logical" name="LSUBROT"> F  </i>
     <i name="WEIMIN">      0.00100000</i>
     <i name="EBREAK">      0.00000035</i>
     <i name="DEPER">      0.30000000</i>
     <i type="int" name="NRMM">     4</i>
     <i name="TIME">      0.40000000</i>
    </separator>
   </separator>
   <separator name="electronic mixer" >
    <i name="AMIX">      0.10000000</i>
    <i name="BMIX">      1.20000000</i>
    <i name="AMIN">      0.10000000</i>
    <i name="AMIX_MAG">      0.40000000</i>
    <i name="BMIX_MAG">      1.20000000</i>
    <separator name="electronic mixer details" >
     <i type="int" name="IMIX">     4</i>
     <i type="logical" name="MIXFIRST"> F  </i>
     <i type="int" name="MAXMIX">   -45</i>
     <i name="WC">    100.00000000</i>
     <i type="int" name="INIMIX">     1</i>
     <i type="int" name="MIXPRE">     1</i>
     <i type="int" name="MREMOVE">     5</i>
    </separator>
   </separator>
   <separator name="electronic dipolcorrection" >
    <i type="logical" name="LDIPOL"> F  </i>
    <i type="logical" name="LMONO"> F  </i>
    <i type="int" name="IDIPOL">     0</i>
    <i name="EPSILON">      1.00000000</i>
    <v name="DIPOL">   -100.00000000   -100.00000000   -100.00000000</v>
    <i name="EFIELD">      0.00000000</i>
   </separator>
  </separator>
  <separator name="grids" >
   <i type="int" name="NGX">    56</i>
   <i type="int" name="NGY">    56</i>
   <i type="int" name="NGZ">    56</i>
   <i type="int" name="NGXF">   112</i>
   <i type="int" name="NGYF">   112</i>
   <i type="int" name="NGZF">   112</i>
   <i type="logical" name="ADDGRID"> T  </i>
  </separator>
  <separator name="ionic" >
   <i type="int" name="NSW">    40</i>
   <i type="int" name="IBRION">     2</i>
   <i type="int" name="ISIF">     3</i>
   <i name="PSTRESS">      0.00000000</i>
   <i name="EDIFFG">     -0.00100000</i>
   <i type="int" name="NFREE">     1</i>
   <i name="POTIM">      0.05000000</i>
   <i name="SMASS">     -3.00000000</i>
   <i name="SCALEE">      1.00000000</i>
  </separator>
  <separator name="ionic md" >
   <i name="TEBEG">      0.00010000</i>
   <i name="TEEND">      0.00010000</i>
   <i type="int" name="NBLOCK">     1</i>
   <i type="int" name="KBLOCK">    40</i>
   <i type="int" name="NPACO">   256</i>
   <i name="APACO">     16.00000000</i>
  </separator>
  <separator name="symmetry" >
   <i type="int" name="ISYM">     2</i>
   <i name="SYMPREC">      0.00010000</i>
  </separator>
  <separator name="dos" >
   <i type="logical" name="LORBIT"> F  </i>
   <v name="RWIGS">     -1.00000000     -1.00000000     -1.00000000</v>
   <i type="int" name="NEDOS">   301</i>
   <i name="EMIN">     10.00000000</i>
   <i name="EMAX">    -10.00000000</i>
   <i name="EFERMI">      0.00000000</i>
  </separator>
  <separator name="writing" >
   <i type="int" name="NWRITE">     2</i>
   <i type="logical" name="LWAVE"> F  </i>
   <i type="logical" name="LCHARG"> F  </i>
   <i type="logical" name="LPARD"> F  </i>
   <i type="logical" name="LVTOT"> F  </i>
   <i type="logical" name="LVHAR"> F  </i>
   <i type="logical" name="LELF"> F  </i>
   <i type="logical" name="LOPTICS"> F  </i>
   <v name="STM">      0.00000000      0.00000000      0.00000000      0.00000000      0.00000000      0.00000000      0.00000000</v>
  </separator>
  <separator name="performance" >
   <i type="int" name="NPAR">     6</i>
   <i type="int" name="NSIM">     4</i>
   <i type="int" name="NBLK">    -1</i>
   <i type="logical" name="LPLANE"> T  </i>
   <i type="logical" name="LSCALAPACK"> T  </i>
   <i type="logical" name="LSCAAWARE"> F  </i>
   <i type="logical" name="LSCALU"> F  </i>
   <i type="logical" name="LASYNC"> F  </i>
   <i type="logical" name="LORBITALREAL"> F  </i>
  </separator>
  <separator name="miscellaneous" >
   <i type="int" name="IDIOT">     3</i>
   <i type="logical" name="LMUSIC"> F  </i>
   <v name="POMASS">    180.94800000     69.72300000     78.96000000</v>
   <v name="DARWINR">      0.00000000      0.00000000      0.00000000</v>
   <v name="DARWINV">      1.00000000      1.00000000      1.00000000</v>
   <i type="logical" name="LCORR"> T  </i>
  </separator>
  <i type="logical" name="GGA_COMPAT"> T  </i>
  <i type="logical" name="LBERRY"> F  </i>
  <i type="int" name="ICORELEVEL">     0</i>
  <i type="logical" name="LDAU"> T  </i>
  <v type="int" name="LDAUTYPE">     2</v>
  <v type="int" name="LDAUL">     2</v>
  <v name="LDAUU">      2.00000000</v>
  <v name="LDAUJ">      0.00000000</v>
  <i type="int" name="LDAUPRINT">     0</i>
  <i type="int" name="I_CONSTRAINED_M">     0</i>
  <separator name="electronic exchange-correlation" >
   <i type="string" name="GGA">--</i>
   <i type="int" name="VOSKOWN">     0</i>
   <i type="logical" name="LHFCALC"> F  </i>
   <i type="string" name="PRECFOCK"></i>
   <i type="logical" name="LSYMGRAD"> F  </i>
   <i type="logical" name="LHFONE"> F  </i>
   <i type="logical" name="LRHFCALC"> F  </i>
   <i type="logical" name="LTHOMAS"> F  </i>
   <i type="logical" name="LMODELHF"> F  </i>
   <i name="ENCUT4O">     -1.00000000</i>
   <i type="int" name="EXXOEP">     0</i>
   <i type="int" name="FOURORBIT">     0</i>
   <i name="AEXX">      0.00000000</i>
   <i name="HFALPHA">      0.00000000</i>
   <i name="MCALPHA">      0.00000000</i>
   <i name="ALDAX">      1.00000000</i>
   <i name="AGGAX">      1.00000000</i>
   <i name="ALDAC">      1.00000000</i>
   <i name="AGGAC">      1.00000000</i>
   <i type="int" name="NKREDX">     1</i>
   <i type="int" name="NKREDY">     1</i>
   <i type="int" name="NKREDZ">     1</i>
   <i type="logical" name="SHIFTRED"> F  </i>
   <i type="logical" name="ODDONLY"> F  </i>
   <i type="logical" name="EVENONLY"> F  </i>
   <i type="int" name="LMAXFOCK">     0</i>
   <i type="int" name="NMAXFOCKAE">     0</i>
   <i type="logical" name="LFOCKAEDFT"> F  </i>
   <i name="HFSCREEN">      0.00000000</i>
   <i name="HFSCREENC">      0.00000000</i>
   <i type="int" name="NBANDSGWLOW">     0</i>
  </separator>
  <separator name="vdW DFT" >
   <i type="logical" name="LUSE_VDW"> F  </i>
   <i name="Zab_VDW">     -0.84910000</i>
   <i name="PARAM1">      0.12340000</i>
   <i name="PARAM2">      1.00000000</i>
   <i name="PARAM3">      0.00000000</i>
  </separator>
  <separator name="model GW" >
   <i type="int" name="MODEL_GW">     0</i>
   <i name="MODEL_EPS0">     13.45595513</i>
   <i name="MODEL_ALPHA">      1.00000000</i>
  </separator>
  <separator name="linear response parameters" >
   <i type="logical" name="LEPSILON"> F  </i>
   <i type="logical" name="LRPA"> F  </i>
   <i type="logical" name="LNABLA"> F  </i>
   <i type="logical" name="LVEL"> F  </i>
   <i type="int" name="KINTER">     0</i>
   <i name="CSHIFT">      0.10000000</i>
   <i name="OMEGAMAX">     -1.00000000</i>
   <i name="DEG_THRESHOLD">      0.00200000</i>
  </separator>
  <separator name="orbital magnetization" >
   <i type="logical" name="NUCIND"> F  </i>
   <v name="MAGPOS">      0.00000000      0.00000000      0.00000000</v>
   <i type="logical" name="LNICSALL"> T  </i>
   <i type="logical" name="ORBITALMAG"> F  </i>
   <i type="logical" name="LMAGBLOCH"> F  </i>
   <i type="logical" name="LCHIMAG"> F  </i>
   <i type="logical" name="LGAUGE"> T  </i>
   <i type="int" name="MAGATOM">     0</i>
   <v name="MAGDIPOL">      0.00000000      0.00000000      0.00000000</v>
   <v name="AVECCONST">      0.00000000      0.00000000      0.00000000</v>
  </separator>
  <separator name="response functions" >
   <i type="logical" name="LADDER"> F  </i>
   <i type="logical" name="LFXC"> F  </i>
   <i type="logical" name="LHARTREE"> T  </i>
   <i type="int" name="IBSE">     0</i>
   <v type="int" name="KPOINT">    -1     0     0     0</v>
   <i type="logical" name="LTCTE"> F  </i>
   <i type="logical" name="LTETE"> F  </i>
   <i type="logical" name="LTRIPLET"> F  </i>
   <i type="logical" name="LFXCEPS"> F  </i>
   <i type="logical" name="LFXHEG"> F  </i>
   <i type="int" name="NATURALO">     0</i>
   <i type="logical" name="L2ORDER"> F  </i>
   <i type="logical" name="LUSEW"> F  </i>
   <i name="ENCUTGW">     -2.00000000</i>
   <i name="ENCUTGWSOFT">     -2.00000000</i>
   <i name="ENCUTLF">     -1.00000000</i>
   <i type="int" name="LMAXMP2">    -1</i>
   <i name="SCISSOR">      0.00000000</i>
   <i type="int" name="NOMEGA">     0</i>
   <i type="int" name="NOMEGAR">     0</i>
   <i type="int" name="NBANDSGW">    -1</i>
   <i type="int" name="NBANDSO">    -1</i>
   <i type="int" name="NBANDSV">    -1</i>
   <i type="int" name="NELM">    60</i>
   <i type="int" name="NELMHF">     1</i>
   <i type="int" name="DIM">     3</i>
   <i type="int" name="ANTIRES">     0</i>
   <i name="OMEGAMAX">    -30.00000000</i>
   <i name="OMEGAMIN">    -30.00000000</i>
   <i name="OMEGATL">   -200.00000000</i>
   <i type="int" name="OMEGAGRID">     0</i>
   <i name="CSHIFT">     -0.10000000</i>
   <i type="logical" name="SELFENERGY"> F  </i>
   <i type="logical" name="LSPECTRAL"> F  </i>
   <i type="logical" name="LSPECTRALGW"> F  </i>
   <i type="logical" name="LSINGLES"> F  </i>
   <i type="logical" name="LFERMIGW"> F  </i>
   <i type="logical" name="ODDONLYGW"> F  </i>
   <i type="logical" name="EVENONLYGW"> F  </i>
   <i type="int" name="NKREDLFX">     1</i>
   <i type="int" name="NKREDLFY">     1</i>
   <i type="int" name="NKREDLFZ">     1</i>
   <i type="int" name="MAXMEM">  1800</i>
   <i type="int" name="TELESCOPE">     0</i>
   <i type="int" name="TAUPAR">     1</i>
   <i type="int" name="OMEGAPAR">    -1</i>
   <i name="LAMBDA">      1.00000000</i>
  </separator>
  <separator name="External order field" >
   <i name="OFIELD_KAPPA">      0.00000000</i>
   <v name="OFIELD_K">      0.00000000      0.00000000      0.00000000</v>
   <i name="OFIELD_Q6_NEAR">      0.00000000</i>
   <i name="OFIELD_Q6_FAR">      0.00000000</i>
   <i name="OFIELD_A">      0.00000000</i>
  </separator>
 </parameters>
 <atominfo>
  <atoms>      13 </atoms>
  <types>       3 </types>
  <array name="atoms" >
   <dimension dim="1">ion</dimension>
   <field type="string">element</field>
   <field type="int">atomtype</field>
   <set>
    <rc><c>Ta</c><c>   1</c></rc>
    <rc><c>Ta</c><c>   1</c></rc>
    <rc><c>Ta</c><c>   1</c></rc>
    <rc><c>Ta</c><c>   1</c></rc>
    <rc><c>Ga</c><c>   2</c></rc>
    <rc><c>Se</c><c>   3</c></rc>
    <rc><c>Se</c><c>   3</c></rc>
    <rc><c>Se</c><c>   3</c></rc>
    <rc><c>Se</c><c>   3</c></rc>
    <rc><c>Se</c><c>   3</c></rc>
    <rc><c>Se</c><c>   3</c></rc>
    <rc><c>Se</c><c>   3</c></rc>
    <rc><c>Se</c><c>   3</c></rc>
   </set>
  </array>
  <array name="atomtypes" >
   <dimension dim="1">type</dimension>
   <field type="int">atomspertype</field>
   <field type="string">element</field>
   <field>mass</field>
   <field>valence</field>
   <field type="string">pseudopotential</field>
   <set>
    <rc><c>   4</c><c>Ta</c><c>    180.94800000</c><c>     11.00000000</c><c>  PAW_PBE Ta_pv 07Sep2000               </c></rc>
    <rc><c>   1</c><c>Ga</c><c>     69.72300000</c><c>     13.00000000</c><c>  PAW_PBE Ga_d 06Jul2010                </c></rc>
    <rc><c>   8</c><c>Se</c><c>     78.96000000</c><c>      6.00000000</c><c>  PAW_PBE Se 06Sep2000                  </c></rc>
   </set>
  </array>
 </atominfo>
 <structure name="initialpos" >
  <crystal>
   <varray name="basis" >
    <v>       0.00000000       5.26290518       5.26290518 </v>
    <v>       5.26290518       0.00000000       5.26290518 </v>
    <v>       5.26290518       5.26290518       0.00000000 </v>
   </varray>
   <i name="volume">    291.54569450 </i>
   <varray name="rec_basis" >
    <v>      -0.09500456       0.09500456       0.09500456 </v>
    <v>       0.09500456      -0.09500456       0.09500456 </v>
    <v>       0.09500456       0.09500456      -0.09500456 </v>
   </varray>
  </crystal>
  <varray name="positions" >
   <v>       0.60236569       0.60236569       0.19290293 </v>
   <v>       0.60236569       0.19290293       0.60236569 </v>
   <v>       0.19290293       0.60236569       0.60236569 </v>
   <v>       0.60236569       0.60236569       0.60236569 </v>
   <v>       0.00000000       0.00000000       0.00000000 </v>
   <v>       0.36400740       0.36400740       0.90797780 </v>
   <v>       0.36400740       0.90797780       0.36400740 </v>
   <v>       0.90797780       0.36400740       0.36400740 </v>
   <v>       0.36400740       0.36400740       0.36400740 </v>
   <v>       0.86500044       0.86500044       0.40499867 </v>
   <v>       0.86500044       0.40499867       0.86500044 </v>
   <v>       0.40499867       0.86500044       0.86500044 </v>
   <v>       0.86500044       0.86500044       0.86500044 </v>
  </varray>
 </structure>
 <calculation>
  <scstep>
   <time name="dav">    7.26    7.55</time>
   <time name="total">    7.57    7.90</time>
   <energy>
    <i name="alphaZ">    505.10205580 </i>
    <i name="ewald">  -6074.94417597 </i>
    <i name="hartreedc">  -2006.20763092 </i>
    <i name="XCdc">    133.65622454 </i>
    <i name="pawpsdc">   6568.38814909 </i>
    <i name="pawaedc">  -6703.61005876 </i>
    <i name="eentropy">     -0.00487697 </i>
    <i name="bandstr">    130.43605621 </i>
    <i name="atom">   8394.63709520 </i>
    <i name="e_fr_energy">    947.45283822 </i>
    <i name="e_wo_entrp">    947.45771519 </i>
    <i name="e_0_energy">    947.45527671 </i>
   </energy>
  </scstep>
  <scstep>
   <time name="dav">    7.26    7.28</time>
   <time name="total">    7.27    7.30</time>
   <energy>
    <i name="e_fr_energy">     19.60330739 </i>
    <i name="e_wo_entrp">     19.60554670 </i>
    <i name="e_0_energy">     19.60442705 </i>
   </energy>
  </scstep>
  <scstep>
   <time name="dav">    7.71    7.75</time>
   <time name="total">    7.72    7.77</time>
   <energy>
    <i name="e_fr_energy">    -79.06125211 </i>
    <i name="e_wo_entrp">    -79.05651521 </i>
    <i name="e_0_energy">    -79.05888366 </i>
   </energy>
  </scstep>
  <scstep>
   <time name="dav">    7.98    8.00</time>
   <time name="total">    7.98    8.02</time>
   <energy>
    <i name="e_fr_energy">    -83.27255996 </i>
    <i name="e_wo_entrp">    -83.26933648 </i>
    <i name="e_0_energy">    -83.27094822 </i>
   </energy>
  </scstep>
  <scstep>
   <time name="dav">    8.10    8.11</time>
   <time name="total">    8.55    8.60</time>
   <energy>
    <i name="e_fr_energy">    -83.37129244 </i>
    <i name="e_wo_entrp">    -83.36805084 </i>
    <i name="e_0_energy">    -83.36967164 </i>
   </energy>
  </scstep>
  <scstep>
   <time name="dav">    8.05    8.18</time>
   <time name="total">    8.77    8.94</time>
   <energy>
    <i name="e_fr_energy">    -82.09517950 </i>
    <i name="e_wo_entrp">    -82.09240001 </i>
    <i name="e_0_energy">    -82.09378975 </i>
   </energy>
  </scstep>
  <scstep>
   <time name="dav">    7.75    7.77</time>
   <time name="total">    8.47    8.50</time>
   <energy>
    <i name="e_fr_energy">    -80.74560666 </i>
    <i name="e_wo_entrp">    -80.74149551 </i>
    <i name="e_0_energy">    -80.74355108 </i>
   </energy>
  </scstep>
  <scstep>
   <time name="dav">    7.41    7.43</time>
   <time name="total">    8.13    8.17</time>
   <energy>
    <i name="e_fr_energy">    -80.83334381 </i>
    <i name="e_wo_entrp">    -80.82774626 </i>
    <i name="e_0_energy">    -80.83054503 </i>
   </energy>
  </scstep>
  <scstep>
   <time name="dav">    7.61    7.63</time>
   <time name="total">    8.33    8.37</time>
   <energy>
    <i name="e_fr_energy">    -80.84191596 </i>
    <i name="e_wo_entrp">    -80.83490368 </i>
    <i name="e_0_energy">    -80.83840982 </i>
   </energy>
  </scstep>
  <scstep>
   <time name="dav">    7.64    7.66</time>
   <time name="total">    8.36    8.39</time>
   <energy>
    <i name="e_fr_energy">    -80.84558967 </i>
    <i name="e_wo_entrp">    -80.83617179 </i>
    <i name="e_0_energy">    -80.84088073 </i>
   </energy>
  </scstep>
  <scstep>
   <time name="dav">    7.40    7.42</time>
   <time name="total">    8.13    8.16</time>
   <energy>
    <i name="e_fr_energy">    -80.82699068 </i>
    <i name="e_wo_entrp">    -80.81735139 </i>
    <i name="e_0_energy">    -80.82217104 </i>
   </energy>
  </scstep>
  <scstep>
   <time name="dav">    7.64    7.66</time>
   <time name="total">    8.36    8.39</time>
   <energy>
    <i name="e_fr_energy">    -80.82915948 </i>
    <i name="e_wo_entrp">    -80.81939844 </i>
    <i name="e_0_energy">    -80.82427896 </i>
   </energy>
  </scstep>
  <scstep>
   <time name="dav">    7.69    7.70</time>
   <time name="total">    8.41    8.44</time>
   <energy>
    <i name="e_fr_energy">    -80.82973537 </i>
    <i name="e_wo_entrp">    -80.81988876 </i>
    <i name="e_0_energy">    -80.82481207 </i>
   </energy>
  </scstep>
  <scstep>
   <time name="dav">    7.61    7.63</time>
   <time name="total">    8.34    8.37</time>
   <energy>
    <i name="e_fr_energy">    -80.83106406 </i>
    <i name="e_wo_entrp">    -80.82115547 </i>
    <i name="e_0_energy">    -80.82610977 </i>
   </energy>
  </scstep>
  <scstep>
   <time name="dav">    7.03    7.05</time>
   <time name="total">    7.75    7.78</time>
   <energy>
    <i name="e_fr_energy">    -80.83137733 </i>
    <i name="e_wo_entrp">    -80.82145117 </i>
    <i name="e_0_energy">    -80.82641425 </i>
   </energy>
  </scstep>
  <scstep>
   <time name="dav">    6.57    6.58</time>
   <time name="total">    6.84    6.87</time>
   <energy>
    <i name="alphaZ">    505.10205580 </i>
    <i name="ewald">  -6074.94417597 </i>
    <i name="hartreedc">  -1948.74702194 </i>
    <i name="XCdc">    132.04444643 </i>
    <i name="pawpsdc">  10450.42002298 </i>
    <i name="pawaedc"> -10597.62988643 </i>
    <i name="eentropy">     -0.00998162 </i>
    <i name="bandstr">   -941.70400172 </i>
    <i name="atom">   8394.63709520 </i>
    <i name="e_fr_energy">    -80.83144727 </i>
    <i name="e_wo_entrp">    -80.82146565 </i>
    <i name="e_0_energy">    -80.82645646 </i>
   </energy>
  </scstep>
  <structure>
   <crystal>
    <varray name="basis" >
     <v>       0.00000000       5.26290518       5.26290518 </v>
     <v>       5.26290518       0.00000000       5.26290518 </v>
     <v>       5.26290518       5.26290518       0.00000000 </v>
    </varray>
    <i name="volume">    291.54569450 </i>
    <varray name="rec_basis" >
     <v>      -0.09500456       0.09500456       0.09500456 </v>
     <v>       0.09500456      -0.09500456       0.09500456 </v>
     <v>       0.09500456       0.09500456      -0.09500456 </v>
    </varray>
   </crystal>
   <varray name="positions" >
    <v>       0.60236569       0.60236569       0.19290293 </v>
    <v>       0.60236569       0.19290293       0.60236569 </v>
    <v>       0.19290293       0.60236569       0.60236569 </v>
    <v>       0.60236569       0.60236569       0.60236569 </v>
    <v>       0.00000000       0.00000000       0.00000000 </v>
    <v>       0.36400740       0.36400740       0.90797780 </v>
    <v>       0.36400740       0.90797780       0.36400740 </v>
    <v>       0.90797780       0.36400740       0.36400740 </v>
    <v>       0.36400740       0.36400740       0.36400740 </v>
    <v>       0.86500044       0.86500044       0.40499867 </v>
    <v>       0.86500044       0.40499867       0.86500044 </v>
    <v>       0.40499867       0.86500044       0.86500044 </v>
    <v>       0.86500044       0.86500044       0.86500044 </v>
   </varray>
  </structure>
  <varray name="forces" >
   <v>      -0.02008989      -0.02008989       0.02008989 </v>
   <v>      -0.02008989       0.02008989      -0.02008989 </v>
   <v>       0.02008989      -0.02008989      -0.02008989 </v>
   <v>       0.02008989       0.02008989       0.02008989 </v>
   <v>       0.00000000       0.00000000       0.00000000 </v>
   <v>       0.01153575       0.01153575      -0.01153575 </v>
   <v>       0.01153575      -0.01153575       0.01153575 </v>
   <v>      -0.01153575       0.01153575       0.01153575 </v>
   <v>      -0.01153575      -0.01153575      -0.01153575 </v>
   <v>       0.00098212       0.00098212      -0.00098212 </v>
   <v>       0.00098212      -0.00098212       0.00098212 </v>
   <v>      -0.00098212       0.00098212       0.00098212 </v>
   <v>      -0.00098212      -0.00098212      -0.00098212 </v>
  </varray>
  <varray name="stress" >
   <v>       0.75643532       0.00000000      -0.00000000 </v>
   <v>      -0.00000000       0.75643532      -0.00000000 </v>
   <v>       0.00000000       0.00000000       0.75643532 </v>
  </varray>
  <energy>
   <i name="e_fr_energy">    -80.83144727 </i>
   <i name="e_wo_entrp">    -80.82645646 </i>
   <i name="e_0_energy">     -0.00998162 </i>
  </energy>
  <time name="totalsc">  137.57  138.86</time>
 </calculation>
 <calculation>
  <scstep>
   <time name="dav">    7.13    7.15</time>
   <time name="total">    7.85    7.88</time>
   <energy>
    <i name="alphaZ">    505.02466101 </i>
    <i name="ewald">  -6074.83812080 </i>
    <i name="hartreedc">  -1948.47630020 </i>
    <i name="XCdc">    132.02922510 </i>
    <i name="pawpsdc">  10451.47385185 </i>
    <i name="pawaedc"> -10598.68527669 </i>
    <i name="eentropy">     -0.00999491 </i>
    <i name="bandstr">   -941.98664062 </i>
    <i name="atom">   8394.63709520 </i>
    <i name="e_fr_energy">    -80.83150006 </i>
    <i name="e_wo_entrp">    -80.82150515 </i>
    <i name="e_0_energy">    -80.82650260 </i>
   </energy>
  </scstep>
  <scstep>
   <time name="dav">    5.46    5.47</time>
   <time name="total">    6.18    6.21</time>
   <energy>
    <i name="e_fr_energy">    -80.83150892 </i>
    <i name="e_wo_entrp">    -80.82150766 </i>
    <i name="e_0_energy">    -80.82650829 </i>
   </energy>
  </scstep>
  <scstep>
   <time name="dav">    5.40    5.41</time>
   <time name="total">    6.12    6.15</time>
   <energy>
    <i name="e_fr_energy">    -80.83151476 </i>
    <i name="e_wo_entrp">    -80.82148926 </i>
    <i name="e_0_energy">    -80.82650201 </i>
   </energy>
  </scstep>
  <scstep>
   <time name="dav">    5.36    5.37</time>
   <time name="total">    6.08    6.10</time>
   <energy>
    <i name="e_fr_energy">    -80.83151818 </i>
    <i name="e_wo_entrp">    -80.82147203 </i>
    <i name="e_0_energy">    -80.82649511 </i>
   </energy>
  </scstep>
  <scstep>
   <time name="dav">    5.31    5.32</time>
   <time name="total">    6.04    6.06</time>
   <energy>
    <i name="e_fr_energy">    -80.83151882 </i>
    <i name="e_wo_entrp">    -80.82146371 </i>
    <i name="e_0_energy">    -80.82649127 </i>
   </energy>
  </scstep>
  <scstep>
   <time name="dav">    5.21    5.22</time>
   <time name="total">    5.49    5.51</time>
   <energy>
    <i name="alphaZ">    505.02466101 </i>
    <i name="ewald">  -6074.83812080 </i>
    <i name="hartreedc">  -1948.66067889 </i>
    <i name="XCdc">    132.03579165 </i>
    <i name="pawpsdc">  10450.66616120 </i>
    <i name="pawaedc"> -10597.88176543 </i>
    <i name="eentropy">     -0.01007902 </i>
    <i name="bandstr">   -941.80458533 </i>
    <i name="atom">   8394.63709520 </i>
    <i name="e_fr_energy">    -80.83152041 </i>
    <i name="e_wo_entrp">    -80.82144139 </i>
    <i name="e_0_energy">    -80.82648090 </i>
   </energy>
  </scstep>
  <structure>
   <crystal>
    <varray name="basis" >
     <v>       0.00000000       5.26317401       5.26317401 </v>
     <v>       5.26317401       0.00000000       5.26317401 </v>
     <v>       5.26317401       5.26317401      -0.00000000 </v>
    </varray>
    <i name="volume">    291.59037373 </i>
    <varray name="rec_basis" >
     <v>      -0.09499971       0.09499971       0.09499971 </v>
     <v>       0.09499971      -0.09499971       0.09499971 </v>
     <v>       0.09499971       0.09499971      -0.09499971 </v>
    </varray>
   </crystal>
   <varray name="positions" >
    <v>       0.60237490       0.60237490       0.19287531 </v>
    <v>       0.60237490       0.19287531       0.60237490 </v>
    <v>       0.19287531       0.60237490       0.60237490 </v>
    <v>       0.60237490       0.60237490       0.60237490 </v>
    <v>       0.00000000       0.00000000       0.00000000 </v>
    <v>       0.36400211       0.36400211       0.90799366 </v>
    <v>       0.36400211       0.90799366       0.36400211 </v>
    <v>       0.90799366       0.36400211       0.36400211 </v>
    <v>       0.36400211       0.36400211       0.36400211 </v>
    <v>       0.86499999       0.86499999       0.40500002 </v>
    <v>       0.86499999       0.40500002       0.86499999 </v>
    <v>       0.40500002       0.86499999       0.86499999 </v>
    <v>       0.86499999       0.86499999       0.86499999 </v>
   </varray>
  </structure>
  <varray name="forces" >
   <v>      -0.01650389      -0.01650389       0.01650389 </v>
   <v>      -0.01650389       0.01650389      -0.01650389 </v>
   <v>       0.01650389      -0.01650389      -0.01650389 </v>
   <v>       0.01650389       0.01650389       0.01650389 </v>
   <v>      -0.00000000      -0.00000000       0.00000000 </v>
   <v>       0.00714298       0.00714298      -0.00714298 </v>
   <v>       0.00714298      -0.00714298       0.00714298 </v>
   <v>      -0.00714298       0.00714298       0.00714298 </v>
   <v>      -0.00714298      -0.00714298      -0.00714298 </v>
   <v>       0.00116591       0.00116591      -0.00116591 </v>
   <v>       0.00116591      -0.00116591       0.00116591 </v>
   <v>      -0.00116591       0.00116591       0.00116591 </v>
   <v>      -0.00116591      -0.00116591      -0.00116591 </v>
  </varray>
  <varray name="stress" >
   <v>       0.11749484       0.00000000       0.00000000 </v>
   <v>       0.00000000       0.11749484       0.00000000 </v>
   <v>       0.00000000       0.00000000       0.11749484 </v>
  </varray>
  <energy>
   <i name="e_fr_energy">    -80.83152041 </i>
   <i name="e_wo_entrp">    -80.82648090 </i>
   <i name="e_0_energy">     -0.01007902 </i>
  </energy>
  <time name="totalsc">   46.33   46.53</time>
 </calculation>
 <calculation>
  <scstep>
   <time name="dav">    7.18    7.20</time>
   <time name="total">    7.90    7.93</time>
   <energy>
    <i name="alphaZ">    504.93983498 </i>
    <i name="ewald">  -6074.72171674 </i>
    <i name="hartreedc">  -1948.34044738 </i>
    <i name="XCdc">    132.01882479 </i>
    <i name="pawpsdc">  10450.77248505 </i>
    <i name="pawaedc"> -10597.98468604 </i>
    <i name="eentropy">     -0.01009349 </i>
    <i name="bandstr">   -942.14285407 </i>
    <i name="atom">   8394.63709520 </i>
    <i name="e_fr_energy">    -80.83155770 </i>
    <i name="e_wo_entrp">    -80.82146422 </i>
    <i name="e_0_energy">    -80.82651096 </i>
   </energy>
  </scstep>
  <scstep>
   <time name="dav">    5.12    5.13</time>
   <time name="total">    5.84    5.86</time>
   <energy>
    <i name="e_fr_energy">    -80.83155984 </i>
    <i name="e_wo_entrp">    -80.82146276 </i>
    <i name="e_0_energy">    -80.82651130 </i>
   </energy>
  </scstep>
  <scstep>
   <time name="dav">    5.08    5.09</time>
   <time name="total">    5.80    5.83</time>
   <energy>
    <i name="e_fr_energy">    -80.83155449 </i>
    <i name="e_wo_entrp">    -80.82144757 </i>
    <i name="e_0_energy">    -80.82650103 </i>
   </energy>
  </scstep>
  <scstep>
   <time name="dav">    5.02    5.03</time>
   <time name="total">    5.75    5.94</time>
   <energy>
    <i name="e_fr_energy">    -80.83155189 </i>
    <i name="e_wo_entrp">    -80.82142929 </i>
    <i name="e_0_energy">    -80.82649059 </i>
   </energy>
  </scstep>
  <scstep>
   <time name="dav">    4.98    4.99</time>
   <time name="total">    5.71    5.73</time>
   <energy>
    <i name="e_fr_energy">    -80.83155202 </i>
    <i name="e_wo_entrp">    -80.82142262 </i>
    <i name="e_0_energy">    -80.82648732 </i>
   </energy>
  </scstep>
  <scstep>
   <time name="dav">    4.94    4.95</time>
   <time name="total">    5.22    5.25</time>
   <energy>
    <i name="alphaZ">    504.93983498 </i>
    <i name="ewald">  -6074.72171674 </i>
    <i name="hartreedc">  -1948.54380138 </i>
    <i name="XCdc">    132.02658263 </i>
    <i name="pawpsdc">  10447.80707837 </i>
    <i name="pawaedc"> -10595.01880256 </i>
    <i name="eentropy">     -0.01013384 </i>
    <i name="bandstr">   -941.94768878 </i>
    <i name="atom">   8394.63709520 </i>
    <i name="e_fr_energy">    -80.83155213 </i>
    <i name="e_wo_entrp">    -80.82141829 </i>
    <i name="e_0_energy">    -80.82648521 </i>
   </energy>
  </scstep>
  <structure>
   <crystal>
    <varray name="basis" >
     <v>       0.00000000       5.26346872       5.26346872 </v>
     <v>       5.26346872       0.00000000       5.26346872 </v>
     <v>       5.26346872       5.26346872      -0.00000000 </v>
    </varray>
    <i name="volume">    291.63935869 </i>
    <varray name="rec_basis" >
     <v>      -0.09499439       0.09499439       0.09499439 </v>
     <v>       0.09499439      -0.09499439       0.09499439 </v>
     <v>       0.09499439       0.09499439      -0.09499439 </v>
    </varray>
   </crystal>
   <varray name="positions" >
    <v>       0.60238499       0.60238499       0.19284503 </v>
    <v>       0.60238499       0.19284503       0.60238499 </v>
    <v>       0.19284503       0.60238499       0.60238499 </v>
    <v>       0.60238499       0.60238499       0.60238499 </v>
    <v>       0.00000000       0.00000000       0.00000000 </v>
    <v>       0.36399632       0.36399632       0.90801105 </v>
    <v>       0.36399632       0.90801105       0.36399632 </v>
    <v>       0.90801105       0.36399632       0.36399632 </v>
    <v>       0.36399632       0.36399632       0.36399632 </v>
    <v>       0.86499950       0.86499950       0.40500150 </v>
    <v>       0.86499950       0.40500150       0.86499950 </v>
    <v>       0.40500150       0.86499950       0.86499950 </v>
    <v>       0.86499950       0.86499950       0.86499950 </v>
   </varray>
  </structure>
  <varray name="forces" >
   <v>      -0.01306932      -0.01306932       0.01306932 </v>
   <v>      -0.01306932       0.01306932      -0.01306932 </v>
   <v>       0.01306932      -0.01306932      -0.01306932 </v>
   <v>       0.01306932       0.01306932       0.01306932 </v>
   <v>      -0.00000000      -0.00000000      -0.00000000 </v>
   <v>       0.00394226       0.00394226      -0.00394226 </v>
   <v>       0.00394226      -0.00394226       0.00394226 </v>
   <v>      -0.00394226       0.00394226       0.00394226 </v>
   <v>      -0.00394226      -0.00394226      -0.00394226 </v>
   <v>       0.00122360       0.00122360      -0.00122360 </v>
   <v>       0.00122360      -0.00122360       0.00122360 </v>
   <v>      -0.00122360       0.00122360       0.00122360 </v>
   <v>      -0.00122360      -0.00122360      -0.00122360 </v>
  </varray>
  <varray name="stress" >
   <v>      -0.04261743      -0.00000000       0.00000000 </v>
   <v>       0.00000000      -0.04261743      -0.00000000 </v>
   <v>      -0.00000000      -0.00000000      -0.04261743 </v>
  </varray>
  <energy>
   <i name="e_fr_energy">    -80.83155213 </i>
   <i name="e_wo_entrp">    -80.82648521 </i>
   <i name="e_0_energy">     -0.01013384 </i>
  </energy>
  <time name="totalsc">   44.80   45.16</time>
 </calculation>
 <calculation>
  <scstep>
   <time name="dav">    6.73    6.75</time>
   <time name="total">    7.45    7.48</time>
   <energy>
    <i name="alphaZ">    504.77023989 </i>
    <i name="ewald">  -6074.48847776 </i>
    <i name="hartreedc">  -1947.91253631 </i>
    <i name="XCdc">    131.99293880 </i>
    <i name="pawpsdc">  10447.86108654 </i>
    <i name="pawaedc"> -10595.06914645 </i>
    <i name="eentropy">     -0.01014856 </i>
    <i name="bandstr">   -942.61265116 </i>
    <i name="atom">   8394.63709520 </i>
    <i name="e_fr_energy">    -80.83159980 </i>
    <i name="e_wo_entrp">    -80.82145124 </i>
    <i name="e_0_energy">    -80.82652552 </i>
   </energy>
  </scstep>
  <scstep>
   <time name="dav">    5.87    5.89</time>
   <time name="total">    6.60    6.62</time>
   <energy>
    <i name="e_fr_energy">    -80.83160843 </i>
    <i name="e_wo_entrp">    -80.82145845 </i>
    <i name="e_0_energy">    -80.82653344 </i>
   </energy>
  </scstep>
  <scstep>
   <time name="dav">    4.88    4.90</time>
   <time name="total">    5.61    5.63</time>
   <energy>
    <i name="e_fr_energy">    -80.83158163 </i>
    <i name="e_wo_entrp">    -80.82142776 </i>
    <i name="e_0_energy">    -80.82650469 </i>
   </energy>
  </scstep>
  <scstep>
   <time name="dav">    4.86    4.87</time>
   <time name="total">    5.59    5.75</time>
   <energy>
    <i name="e_fr_energy">    -80.83156692 </i>
    <i name="e_wo_entrp">    -80.82140607 </i>
    <i name="e_0_energy">    -80.82648649 </i>
   </energy>
  </scstep>
  <scstep>
   <time name="dav">    4.84    4.85</time>
   <time name="total">    5.56    5.59</time>
   <energy>
    <i name="e_fr_energy">    -80.83156616 </i>
    <i name="e_wo_entrp">    -80.82140090 </i>
    <i name="e_0_energy">    -80.82648353 </i>
   </energy>
  </scstep>
  <scstep>
   <time name="dav">    4.77    4.78</time>
   <time name="total">    5.05    5.08</time>
   <energy>
    <i name="alphaZ">    504.77023989 </i>
    <i name="ewald">  -6074.48847776 </i>
    <i name="hartreedc">  -1948.34402181 </i>
    <i name="XCdc">    132.00959112 </i>
    <i name="pawpsdc">  10441.46314502 </i>
    <i name="pawaedc"> -10588.67378342 </i>
    <i name="eentropy">     -0.01016907 </i>
    <i name="bandstr">   -942.19518488 </i>
    <i name="atom">   8394.63709520 </i>
    <i name="e_fr_energy">    -80.83156571 </i>
    <i name="e_wo_entrp">    -80.82139664 </i>
    <i name="e_0_energy">    -80.82648118 </i>
   </energy>
  </scstep>
  <structure>
   <crystal>
    <varray name="basis" >
     <v>       0.00000000       5.26405814       5.26405814 </v>
     <v>       5.26405814       0.00000000       5.26405814 </v>
     <v>       5.26405814       5.26405814      -0.00000000 </v>
    </varray>
    <i name="volume">    291.73734506 </i>
    <varray name="rec_basis" >
     <v>      -0.09498375       0.09498375       0.09498375 </v>
     <v>       0.09498375      -0.09498375       0.09498375 </v>
     <v>       0.09498375       0.09498375      -0.09498375 </v>
    </varray>
   </crystal>
   <varray name="positions" >
    <v>       0.60240518       0.60240518       0.19278447 </v>
    <v>       0.60240518       0.19278447       0.60240518 </v>
    <v>       0.19278447       0.60240518       0.60240518 </v>
    <v>       0.60240518       0.60240518       0.60240518 </v>
    <v>       0.00000000       0.00000000       0.00000000 </v>
    <v>       0.36398473       0.36398473       0.90804582 </v>
    <v>       0.36398473       0.90804582       0.36398473 </v>
    <v>       0.90804582       0.36398473       0.36398473 </v>
    <v>       0.36398473       0.36398473       0.36398473 </v>
    <v>       0.86499851       0.86499851       0.40500446 </v>
    <v>       0.86499851       0.40500446       0.86499851 </v>
    <v>       0.40500446       0.86499851       0.86499851 </v>
    <v>       0.86499851       0.86499851       0.86499851 </v>
   </varray>
  </structure>
  <varray name="forces" >
   <v>      -0.00588234      -0.00588234       0.00588234 </v>
   <v>      -0.00588234       0.00588234      -0.00588234 </v>
   <v>       0.00588234      -0.00588234      -0.00588234 </v>
   <v>       0.00588234       0.00588234       0.00588234 </v>
   <v>      -0.00000000       0.00000000      -0.00000000 </v>
   <v>      -0.00240116      -0.00240116       0.00240116 </v>
   <v>      -0.00240116       0.00240116      -0.00240116 </v>
   <v>       0.00240116      -0.00240116      -0.00240116 </v>
   <v>       0.00240116       0.00240116       0.00240116 </v>
   <v>       0.00134702       0.00134702      -0.00134702 </v>
   <v>       0.00134702      -0.00134702       0.00134702 </v>
   <v>      -0.00134702       0.00134702       0.00134702 </v>
   <v>      -0.00134702      -0.00134702      -0.00134702 </v>
  </varray>
  <varray name="stress" >
   <v>      -0.68010121      -0.00000000       0.00000000 </v>
   <v>      -0.00000000      -0.68010121       0.00000000 </v>
   <v>       0.00000000      -0.00000000      -0.68010121 </v>
  </varray>
  <energy>
   <i name="e_fr_energy">    -80.83156571 </i>
   <i name="e_wo_entrp">    -80.82648118 </i>
   <i name="e_0_energy">     -0.01016907 </i>
  </energy>
  <time name="totalsc">   44.43   44.76</time>
 </calculation>
 <calculation>
  <scstep>
   <time name="dav">    6.63    6.65</time>
   <time name="total">    7.35    7.38</time>
   <energy>
    <i name="alphaZ">    504.84651191 </i>
    <i name="ewald">  -6074.59347473 </i>
    <i name="hartreedc">  -1948.62489463 </i>
    <i name="XCdc">    132.02433897 </i>
    <i name="pawpsdc">  10441.50473960 </i>
    <i name="pawaedc"> -10588.70802994 </i>
    <i name="eentropy">     -0.01017309 </i>
    <i name="bandstr">   -941.90768523 </i>
    <i name="atom">   8394.63709520 </i>
    <i name="e_fr_energy">    -80.83157194 </i>
    <i name="e_wo_entrp">    -80.82139885 </i>
    <i name="e_0_energy">    -80.82648540 </i>
   </energy>
  </scstep>
  <scstep>
   <time name="dav">    4.71    4.72</time>
   <time name="total">    5.44    5.46</time>
   <energy>
    <i name="e_fr_energy">    -80.83157311 </i>
    <i name="e_wo_entrp">    -80.82139819 </i>
    <i name="e_0_energy">    -80.82648565 </i>
   </energy>
  </scstep>
  <scstep>
   <time name="dav">    4.73    4.74</time>
   <time name="total">    5.45    5.48</time>
   <energy>
    <i name="e_fr_energy">    -80.83156812 </i>
    <i name="e_wo_entrp">    -80.82138807 </i>
    <i name="e_0_energy">    -80.82647810 </i>
   </energy>
  </scstep>
  <scstep>
   <time name="dav">    4.70    4.71</time>
   <time name="total">    5.43    5.45</time>
   <energy>
    <i name="e_fr_energy">    -80.83156618 </i>
    <i name="e_wo_entrp">    -80.82137936 </i>
    <i name="e_0_energy">    -80.82647277 </i>
   </energy>
  </scstep>
  <scstep>
   <time name="dav">    4.70    4.70</time>
   <time name="total">    5.41    5.44</time>
   <energy>
    <i name="e_fr_energy">    -80.83156636 </i>
    <i name="e_wo_entrp">    -80.82137717 </i>
    <i name="e_0_energy">    -80.82647177 </i>
   </energy>
  </scstep>
  <scstep>
   <time name="dav">    4.70    4.71</time>
   <time name="total">    4.98    5.00</time>
   <energy>
    <i name="alphaZ">    504.84651191 </i>
    <i name="ewald">  -6074.59347473 </i>
    <i name="hartreedc">  -1948.43487209 </i>
    <i name="XCdc">    132.01689563 </i>
    <i name="pawpsdc">  10444.22974300 </i>
    <i name="pawaedc"> -10591.42577310 </i>
    <i name="eentropy">     -0.01019033 </i>
    <i name="bandstr">   -942.09750195 </i>
    <i name="atom">   8394.63709520 </i>
    <i name="e_fr_energy">    -80.83156646 </i>
    <i name="e_wo_entrp">    -80.82137613 </i>
    <i name="e_0_energy">    -80.82647129 </i>
   </energy>
  </scstep>
  <structure>
   <crystal>
    <varray name="basis" >
     <v>       0.00000000       5.26379302       5.26379302 </v>
     <v>       5.26379302       0.00000000       5.26379302 </v>
     <v>       5.26379302       5.26379302      -0.00000000 </v>
    </varray>
    <i name="volume">    291.69326949 </i>
    <varray name="rec_basis" >
     <v>      -0.09498854       0.09498854       0.09498854 </v>
     <v>       0.09498854      -0.09498854       0.09498854 </v>
     <v>       0.09498854       0.09498854      -0.09498854 </v>
    </varray>
   </crystal>
   <varray name="positions" >
    <v>       0.60239610       0.60239610       0.19281171 </v>
    <v>       0.60239610       0.19281171       0.60239610 </v>
    <v>       0.19281171       0.60239610       0.60239610 </v>
    <v>       0.60239610       0.60239610       0.60239610 </v>
    <v>       0.00000000       0.00000000       0.00000000 </v>
    <v>       0.36398994       0.36398994       0.90803018 </v>
    <v>       0.36398994       0.90803018       0.36398994 </v>
    <v>       0.90803018       0.36398994       0.36398994 </v>
    <v>       0.36398994       0.36398994       0.36398994 </v>
    <v>       0.86499896       0.86499896       0.40500313 </v>
    <v>       0.86499896       0.40500313       0.86499896 </v>
    <v>       0.40500313       0.86499896       0.86499896 </v>
    <v>       0.86499896       0.86499896       0.86499896 </v>
   </varray>
  </structure>
  <varray name="forces" >
   <v>      -0.00948774      -0.00948774       0.00948774 </v>
   <v>      -0.00948774       0.00948774      -0.00948774 </v>
   <v>       0.00948774      -0.00948774      -0.00948774 </v>
   <v>       0.00948774       0.00948774       0.00948774 </v>
   <v>      -0.00000000      -0.00000000      -0.00000000 </v>
   <v>       0.00023277       0.00023277      -0.00023277 </v>
   <v>       0.00023277      -0.00023277       0.00023277 </v>
   <v>      -0.00023277       0.00023277       0.00023277 </v>
   <v>      -0.00023277      -0.00023277      -0.00023277 </v>
   <v>       0.00134068       0.00134068      -0.00134068 </v>
   <v>       0.00134068      -0.00134068       0.00134068 </v>
   <v>      -0.00134068       0.00134068       0.00134068 </v>
   <v>      -0.00134068      -0.00134068      -0.00134068 </v>
  </varray>
  <varray name="stress" >
   <v>      -0.13312212      -0.00000000       0.00000000 </v>
   <v>      -0.00000000      -0.13312212       0.00000000 </v>
   <v>       0.00000000       0.00000000      -0.13312212 </v>
  </varray>
  <energy>
   <i name="e_fr_energy">    -80.83156646 </i>
   <i name="e_wo_entrp">    -80.82647129 </i>
   <i name="e_0_energy">     -0.01019033 </i>
  </energy>
  <time name="totalsc">   42.66   42.84</time>
 </calculation>
 <calculation>
  <scstep>
   <time name="dav">    4.70    4.72</time>
   <time name="total">    5.43    5.45</time>
   <energy>
    <i name="alphaZ">    504.81935863 </i>
    <i name="ewald">  -6074.55611377 </i>
    <i name="hartreedc">  -1948.33452442 </i>
    <i name="XCdc">    132.01157700 </i>
    <i name="pawpsdc">  10444.20895112 </i>
    <i name="pawaedc"> -10591.40588008 </i>
    <i name="eentropy">     -0.01019204 </i>
    <i name="bandstr">   -942.20183928 </i>
    <i name="atom">   8394.63709520 </i>
    <i name="e_fr_energy">    -80.83156763 </i>
    <i name="e_wo_entrp">    -80.82137560 </i>
    <i name="e_0_energy">    -80.82647162 </i>
   </energy>
  </scstep>
  <scstep>
   <time name="dav">    4.69    4.70</time>
   <time name="total">    5.41    5.44</time>
   <energy>
    <i name="e_fr_energy">    -80.83156852 </i>
    <i name="e_wo_entrp">    -80.82137568 </i>
    <i name="e_0_energy">    -80.82647210 </i>
   </energy>
  </scstep>
  <scstep>
   <time name="dav">    4.68    4.68</time>
   <time name="total">    5.40    5.42</time>
   <energy>
    <i name="e_fr_energy">    -80.83156823 </i>
    <i name="e_wo_entrp">    -80.82137369 </i>
    <i name="e_0_energy">    -80.82647096 </i>
   </energy>
  </scstep>
  <scstep>
   <time name="dav">    4.68    4.69</time>
   <time name="total">    5.41    5.43</time>
   <energy>
    <i name="e_fr_energy">    -80.83156787 </i>
    <i name="e_wo_entrp">    -80.82136870 </i>
    <i name="e_0_energy">    -80.82646828 </i>
   </energy>
  </scstep>
  <scstep>
   <time name="dav">    4.84    4.95</time>
   <time name="total">    5.56    5.69</time>
   <energy>
    <i name="e_fr_energy">    -80.83156786 </i>
    <i name="e_wo_entrp">    -80.82136820 </i>
    <i name="e_0_energy">    -80.82646803 </i>
   </energy>
  </scstep>
  <scstep>
   <time name="dav">    4.68    4.70</time>
   <time name="total">    4.97    4.99</time>
   <energy>
    <i name="alphaZ">    504.81935863 </i>
    <i name="ewald">  -6074.55611377 </i>
    <i name="hartreedc">  -1948.39632005 </i>
    <i name="XCdc">    132.01402701 </i>
    <i name="pawpsdc">  10443.22719356 </i>
    <i name="pawaedc"> -10590.42960472 </i>
    <i name="eentropy">     -0.01020066 </i>
    <i name="bandstr">   -942.13700304 </i>
    <i name="atom">   8394.63709520 </i>
    <i name="e_fr_energy">    -80.83156784 </i>
    <i name="e_wo_entrp">    -80.82136718 </i>
    <i name="e_0_energy">    -80.82646751 </i>
   </energy>
  </scstep>
  <structure>
   <crystal>
    <varray name="basis" >
     <v>       0.00000000       5.26388740       5.26388740 </v>
     <v>       5.26388740       0.00000000       5.26388740 </v>
     <v>       5.26388740       5.26388740      -0.00000000 </v>
    </varray>
    <i name="volume">    291.70895912 </i>
    <varray name="rec_basis" >
     <v>      -0.09498683       0.09498683       0.09498683 </v>
     <v>       0.09498683      -0.09498683       0.09498683 </v>
     <v>       0.09498683       0.09498683      -0.09498683 </v>
    </varray>
   </crystal>
   <varray name="positions" >
    <v>       0.60239933       0.60239933       0.19280201 </v>
    <v>       0.60239933       0.19280201       0.60239933 </v>
    <v>       0.19280201       0.60239933       0.60239933 </v>
    <v>       0.60239933       0.60239933       0.60239933 </v>
    <v>       0.00000000       0.00000000       0.00000000 </v>
    <v>       0.36398808       0.36398808       0.90803575 </v>
    <v>       0.36398808       0.90803575       0.36398808 </v>
    <v>       0.90803575       0.36398808       0.36398808 </v>
    <v>       0.36398808       0.36398808       0.36398808 </v>
    <v>       0.86499880       0.86499880       0.40500360 </v>
    <v>       0.86499880       0.40500360       0.86499880 </v>
    <v>       0.40500360       0.86499880       0.86499880 </v>
    <v>       0.86499880       0.86499880       0.86499880 </v>
   </varray>
  </structure>
  <varray name="forces" >
   <v>      -0.00803911      -0.00803911       0.00803911 </v>
   <v>      -0.00803911       0.00803911      -0.00803911 </v>
   <v>       0.00803911      -0.00803911      -0.00803911 </v>
   <v>       0.00803911       0.00803911       0.00803911 </v>
   <v>      -0.00000000      -0.00000000      -0.00000000 </v>
   <v>      -0.00073449      -0.00073449       0.00073449 </v>
   <v>      -0.00073449       0.00073449      -0.00073449 </v>
   <v>       0.00073449      -0.00073449      -0.00073449 </v>
   <v>       0.00073449       0.00073449       0.00073449 </v>
   <v>       0.00133328       0.00133328      -0.00133328 </v>
   <v>       0.00133328      -0.00133328       0.00133328 </v>
   <v>      -0.00133328       0.00133328       0.00133328 </v>
   <v>      -0.00133328      -0.00133328      -0.00133328 </v>
  </varray>
  <varray name="stress" >
   <v>      -0.31303299      -0.00000000       0.00000000 </v>
   <v>      -0.00000000      -0.31303299       0.00000000 </v>
   <v>       0.00000000       0.00000000      -0.31303299 </v>
  </varray>
  <energy>
   <i name="e_fr_energy">    -80.83156784 </i>
   <i name="e_wo_entrp">    -80.82646751 </i>
   <i name="e_0_energy">     -0.01020066 </i>
  </energy>
  <time name="totalsc">   40.74   41.02</time>
 </calculation>
 <calculation>
  <scstep>
   <time name="dav">    5.67    5.68</time>
   <time name="total">    6.38    6.41</time>
   <energy>
    <i name="alphaZ">    504.85185803 </i>
    <i name="ewald">  -6074.79739523 </i>
    <i name="hartreedc">  -1948.33549159 </i>
    <i name="XCdc">    132.01904949 </i>
    <i name="pawpsdc">  10443.21309371 </i>
    <i name="pawaedc"> -10590.41498968 </i>
    <i name="eentropy">     -0.01019699 </i>
    <i name="bandstr">   -941.99459995 </i>
    <i name="atom">   8394.63709520 </i>
    <i name="e_fr_energy">    -80.83157701 </i>
    <i name="e_wo_entrp">    -80.82138002 </i>
    <i name="e_0_energy">    -80.82647852 </i>
   </energy>
  </scstep>
  <scstep>
   <time name="dav">    4.67    4.68</time>
   <time name="total">    5.39    5.41</time>
   <energy>
    <i name="e_fr_energy">    -80.83157908 </i>
    <i name="e_wo_entrp">    -80.82138106 </i>
    <i name="e_0_energy">    -80.82648007 </i>
   </energy>
  </scstep>
  <scstep>
   <time name="dav">    4.66    4.66</time>
   <time name="total">    5.38    5.40</time>
   <energy>
    <i name="e_fr_energy">    -80.83157873 </i>
    <i name="e_wo_entrp">    -80.82137900 </i>
    <i name="e_0_energy">    -80.82647887 </i>
   </energy>
  </scstep>
  <scstep>
   <time name="dav">    4.68    4.69</time>
   <time name="total">    5.40    5.43</time>
   <energy>
    <i name="e_fr_energy">    -80.83157824 </i>
    <i name="e_wo_entrp">    -80.82137581 </i>
    <i name="e_0_energy">    -80.82647702 </i>
   </energy>
  </scstep>
  <scstep>
   <time name="dav">    4.66    4.67</time>
   <time name="total">    5.38    5.41</time>
   <energy>
    <i name="e_fr_energy">    -80.83157816 </i>
    <i name="e_wo_entrp">    -80.82137343 </i>
    <i name="e_0_energy">    -80.82647579 </i>
   </energy>
  </scstep>
  <scstep>
   <time name="dav">    4.66    4.67</time>
   <time name="total">    4.94    4.96</time>
   <energy>
    <i name="alphaZ">    504.85185803 </i>
    <i name="ewald">  -6074.79739523 </i>
    <i name="hartreedc">  -1948.24857438 </i>
    <i name="XCdc">    132.01592702 </i>
    <i name="pawpsdc">  10443.59288473 </i>
    <i name="pawaedc"> -10590.79167527 </i>
    <i name="eentropy">     -0.01020577 </i>
    <i name="bandstr">   -942.08149252 </i>
    <i name="atom">   8394.63709520 </i>
    <i name="e_fr_energy">    -80.83157819 </i>
    <i name="e_wo_entrp">    -80.82137241 </i>
    <i name="e_0_energy">    -80.82647530 </i>
   </energy>
  </scstep>
  <structure>
   <crystal>
    <varray name="basis" >
     <v>       0.00000000       5.26377444       5.26377444 </v>
     <v>       5.26377444       0.00000000       5.26377444 </v>
     <v>       5.26377444       5.26377444      -0.00000000 </v>
    </varray>
    <i name="volume">    291.69018061 </i>
    <varray name="rec_basis" >
     <v>      -0.09498887       0.09498887       0.09498887 </v>
     <v>       0.09498887      -0.09498887       0.09498887 </v>
     <v>       0.09498887       0.09498887      -0.09498887 </v>
    </varray>
   </crystal>
   <varray name="positions" >
    <v>       0.60240694       0.60240694       0.19277919 </v>
    <v>       0.60240694       0.19277919       0.60240694 </v>
    <v>       0.19277919       0.60240694       0.60240694 </v>
    <v>       0.60240694       0.60240694       0.60240694 </v>
    <v>       0.00000000       0.00000000       0.00000000 </v>
    <v>       0.36398747       0.36398747       0.90803759 </v>
    <v>       0.36398747       0.90803759       0.36398747 </v>
    <v>       0.90803759       0.36398747       0.36398747 </v>
    <v>       0.36398747       0.36398747       0.36398747 </v>
    <v>       0.86499777       0.86499777       0.40500670 </v>
    <v>       0.86499777       0.40500670       0.86499777 </v>
    <v>       0.40500670       0.86499777       0.86499777 </v>
    <v>       0.86499777       0.86499777       0.86499777 </v>
   </varray>
  </structure>
  <varray name="forces" >
   <v>      -0.00662878      -0.00662878       0.00662878 </v>
   <v>      -0.00662878       0.00662878      -0.00662878 </v>
   <v>       0.00662878      -0.00662878      -0.00662878 </v>
   <v>       0.00662878       0.00662878       0.00662878 </v>
   <v>       0.00000000       0.00000000       0.00000000 </v>
   <v>      -0.00072352      -0.00072352       0.00072352 </v>
   <v>      -0.00072352       0.00072352      -0.00072352 </v>
   <v>       0.00072352      -0.00072352      -0.00072352 </v>
   <v>       0.00072352       0.00072352       0.00072352 </v>
   <v>       0.00106923       0.00106923      -0.00106923 </v>
   <v>       0.00106923      -0.00106923       0.00106923 </v>
   <v>      -0.00106923       0.00106923       0.00106923 </v>
   <v>      -0.00106923      -0.00106923      -0.00106923 </v>
  </varray>
  <varray name="stress" >
   <v>      -0.24341733      -0.00000000       0.00000000 </v>
   <v>       0.00000000      -0.24341733       0.00000000 </v>
   <v>       0.00000000      -0.00000000      -0.24341733 </v>
  </varray>
  <energy>
   <i name="e_fr_energy">    -80.83157819 </i>
   <i name="e_wo_entrp">    -80.82647530 </i>
   <i name="e_0_energy">     -0.01020577 </i>
  </energy>
  <time name="totalsc">   41.45   41.64</time>
 </calculation>
 <calculation>
  <scstep>
   <time name="dav">    6.77    6.79</time>
   <time name="total">    7.56    7.58</time>
   <energy>
    <i name="alphaZ">    504.94937297 </i>
    <i name="ewald">  -6075.52092722 </i>
    <i name="hartreedc">  -1948.06160813 </i>
    <i name="XCdc">    132.03087170 </i>
    <i name="pawpsdc">  10443.58265634 </i>
    <i name="pawaedc"> -10590.78216300 </i>
    <i name="eentropy">     -0.01019200 </i>
    <i name="bandstr">   -941.65669916 </i>
    <i name="atom">   8394.63709520 </i>
    <i name="e_fr_energy">    -80.83159329 </i>
    <i name="e_wo_entrp">    -80.82140129 </i>
    <i name="e_0_energy">    -80.82649729 </i>
   </energy>
  </scstep>
  <scstep>
   <time name="dav">    5.71    5.72</time>
   <time name="total">    6.43    6.45</time>
   <energy>
    <i name="e_fr_energy">    -80.83161143 </i>
    <i name="e_wo_entrp">    -80.82141770 </i>
    <i name="e_0_energy">    -80.82651457 </i>
   </energy>
  </scstep>
  <scstep>
   <time name="dav">    4.67    4.68</time>
   <time name="total">    5.39    5.42</time>
   <energy>
    <i name="e_fr_energy">    -80.83160457 </i>
    <i name="e_wo_entrp">    -80.82140811 </i>
    <i name="e_0_energy">    -80.82650634 </i>
   </energy>
  </scstep>
  <scstep>
   <time name="dav">    4.64    4.65</time>
   <time name="total">    5.37    5.39</time>
   <energy>
    <i name="e_fr_energy">    -80.83159911 </i>
    <i name="e_wo_entrp">    -80.82139812 </i>
    <i name="e_0_energy">    -80.82649861 </i>
   </energy>
  </scstep>
  <scstep>
   <time name="dav">    4.64    4.65</time>
   <time name="total">    5.36    5.38</time>
   <energy>
    <i name="e_fr_energy">    -80.83159793 </i>
    <i name="e_wo_entrp">    -80.82139269 </i>
    <i name="e_0_energy">    -80.82649531 </i>
   </energy>
  </scstep>
  <scstep>
   <time name="dav">    4.63    4.64</time>
   <time name="total">    4.91    4.93</time>
   <energy>
    <i name="alphaZ">    504.94937297 </i>
    <i name="ewald">  -6075.52092722 </i>
    <i name="hartreedc">  -1947.79011489 </i>
    <i name="XCdc">    132.02126272 </i>
    <i name="pawpsdc">  10444.73189460 </i>
    <i name="pawaedc"> -10591.92732188 </i>
    <i name="eentropy">     -0.01020637 </i>
    <i name="bandstr">   -941.92265323 </i>
    <i name="atom">   8394.63709520 </i>
    <i name="e_fr_energy">    -80.83159808 </i>
    <i name="e_wo_entrp">    -80.82139171 </i>
    <i name="e_0_energy">    -80.82649490 </i>
   </energy>
  </scstep>
  <structure>
   <crystal>
    <varray name="basis" >
     <v>       0.00000000       5.26343558       5.26343558 </v>
     <v>       5.26343558       0.00000000       5.26343558 </v>
     <v>       5.26343558       5.26343558      -0.00000000 </v>
    </varray>
    <i name="volume">    291.63384991 </i>
    <varray name="rec_basis" >
     <v>      -0.09499499       0.09499499       0.09499499 </v>
     <v>       0.09499499      -0.09499499       0.09499499 </v>
     <v>       0.09499499       0.09499499      -0.09499499 </v>
    </varray>
   </crystal>
   <varray name="positions" >
    <v>       0.60242976       0.60242976       0.19271073 </v>
    <v>       0.60242976       0.19271073       0.60242976 </v>
    <v>       0.19271073       0.60242976       0.60242976 </v>
    <v>       0.60242976       0.60242976       0.60242976 </v>
    <v>       0.00000000       0.00000000       0.00000000 </v>
    <v>       0.36398563       0.36398563       0.90804312 </v>
    <v>       0.36398563       0.90804312       0.36398563 </v>
    <v>       0.90804312       0.36398563       0.36398563 </v>
    <v>       0.36398563       0.36398563       0.36398563 </v>
    <v>       0.86499467       0.86499467       0.40501598 </v>
    <v>       0.86499467       0.40501598       0.86499467 </v>
    <v>       0.40501598       0.86499467       0.86499467 </v>
    <v>       0.86499467       0.86499467       0.86499467 </v>
   </varray>
  </structure>
  <varray name="forces" >
   <v>      -0.00200231      -0.00200231       0.00200231 </v>
   <v>      -0.00200231       0.00200231      -0.00200231 </v>
   <v>       0.00200231      -0.00200231      -0.00200231 </v>
   <v>       0.00200231       0.00200231       0.00200231 </v>
   <v>      -0.00000000      -0.00000000      -0.00000000 </v>
   <v>      -0.00075273      -0.00075273       0.00075273 </v>
   <v>      -0.00075273       0.00075273      -0.00075273 </v>
   <v>       0.00075273      -0.00075273      -0.00075273 </v>
   <v>       0.00075273       0.00075273       0.00075273 </v>
   <v>       0.00028009       0.00028009      -0.00028009 </v>
   <v>       0.00028009      -0.00028009       0.00028009 </v>
   <v>      -0.00028009       0.00028009       0.00028009 </v>
   <v>      -0.00028009      -0.00028009      -0.00028009 </v>
  </varray>
  <varray name="stress" >
   <v>      -0.08018537       0.00000000       0.00000000 </v>
   <v>       0.00000000      -0.08018537       0.00000000 </v>
   <v>       0.00000000       0.00000000      -0.08018537 </v>
  </varray>
  <energy>
   <i name="e_fr_energy">    -80.83159808 </i>
   <i name="e_wo_entrp">    -80.82649490 </i>
   <i name="e_0_energy">     -0.01020637 </i>
  </energy>
  <time name="totalsc">   43.58   43.76</time>
 </calculation>
 <calculation>
  <scstep>
   <time name="dav">    6.04    6.06</time>
   <time name="total">    6.76    6.79</time>
   <energy>
    <i name="alphaZ">    504.99225042 </i>
    <i name="ewald">  -6075.83886395 </i>
    <i name="hartreedc">  -1947.70507216 </i>
    <i name="XCdc">    132.02775190 </i>
    <i name="pawpsdc">  10444.62538310 </i>
    <i name="pawaedc"> -10591.82411931 </i>
    <i name="eentropy">     -0.01020211 </i>
    <i name="bandstr">   -941.73582323 </i>
    <i name="atom">   8394.63709520 </i>
    <i name="e_fr_energy">    -80.83160014 </i>
    <i name="e_wo_entrp">    -80.82139803 </i>
    <i name="e_0_energy">    -80.82649908 </i>
   </energy>
  </scstep>
  <scstep>
   <time name="dav">    4.71    4.72</time>
   <time name="total">    5.44    5.46</time>
   <energy>
    <i name="e_fr_energy">    -80.83160335 </i>
    <i name="e_wo_entrp">    -80.82140006 </i>
    <i name="e_0_energy">    -80.82650170 </i>
   </energy>
  </scstep>
  <scstep>
   <time name="dav">    4.63    4.64</time>
   <time name="total">    5.35    5.38</time>
   <energy>
    <i name="e_fr_energy">    -80.83160257 </i>
    <i name="e_wo_entrp">    -80.82139722 </i>
    <i name="e_0_energy">    -80.82649989 </i>
   </energy>
  </scstep>
  <scstep>
   <time name="dav">    4.63    4.64</time>
   <time name="total">    5.35    5.37</time>
   <energy>
    <i name="e_fr_energy">    -80.83160181 </i>
    <i name="e_wo_entrp">    -80.82139340 </i>
    <i name="e_0_energy">    -80.82649760 </i>
   </energy>
  </scstep>
  <scstep>
   <time name="dav">    4.65    4.67</time>
   <time name="total">    5.37    5.40</time>
   <energy>
    <i name="e_fr_energy">    -80.83160171 </i>
    <i name="e_wo_entrp">    -80.82139057 </i>
    <i name="e_0_energy">    -80.82649614 </i>
   </energy>
  </scstep>
  <scstep>
   <time name="dav">    4.62    4.63</time>
   <time name="total">    4.90    4.93</time>
   <energy>
    <i name="alphaZ">    504.99225042 </i>
    <i name="ewald">  -6075.83886395 </i>
    <i name="hartreedc">  -1947.58617459 </i>
    <i name="XCdc">    132.02357779 </i>
    <i name="pawpsdc">  10444.95180338 </i>
    <i name="pawaedc"> -10592.15138676 </i>
    <i name="eentropy">     -0.01021256 </i>
    <i name="bandstr">   -941.84969072 </i>
    <i name="atom">   8394.63709520 </i>
    <i name="e_fr_energy">    -80.83160179 </i>
    <i name="e_wo_entrp">    -80.82138923 </i>
    <i name="e_0_energy">    -80.82649551 </i>
   </energy>
  </scstep>
  <structure>
   <crystal>
    <varray name="basis" >
     <v>       0.00000000       5.26328661       5.26328661 </v>
     <v>       5.26328661       0.00000000       5.26328661 </v>
     <v>       5.26328661       5.26328661      -0.00000000 </v>
    </varray>
    <i name="volume">    291.60908811 </i>
    <varray name="rec_basis" >
     <v>      -0.09499768       0.09499768       0.09499768 </v>
     <v>       0.09499768      -0.09499768       0.09499768 </v>
     <v>       0.09499768       0.09499768      -0.09499768 </v>
    </varray>
   </crystal>
   <varray name="positions" >
    <v>       0.60243979       0.60243979       0.19268063 </v>
    <v>       0.60243979       0.19268063       0.60243979 </v>
    <v>       0.19268063       0.60243979       0.60243979 </v>
    <v>       0.60243979       0.60243979       0.60243979 </v>
    <v>       0.00000000       0.00000000       0.00000000 </v>
    <v>       0.36398481       0.36398481       0.90804556 </v>
    <v>       0.36398481       0.90804556       0.36398481 </v>
    <v>       0.90804556       0.36398481       0.36398481 </v>
    <v>       0.36398481       0.36398481       0.36398481 </v>
    <v>       0.86499331       0.86499331       0.40502006 </v>
    <v>       0.86499331       0.40502006       0.86499331 </v>
    <v>       0.40502006       0.86499331       0.86499331 </v>
    <v>       0.86499331       0.86499331       0.86499331 </v>
   </varray>
  </structure>
  <varray name="forces" >
   <v>      -0.00000768      -0.00000768       0.00000768 </v>
   <v>      -0.00000768       0.00000768      -0.00000768 </v>
   <v>       0.00000768      -0.00000768      -0.00000768 </v>
   <v>       0.00000768       0.00000768       0.00000768 </v>
   <v>      -0.00000000      -0.00000000      -0.00000000 </v>
   <v>      -0.00071784      -0.00071784       0.00071784 </v>
   <v>      -0.00071784       0.00071784      -0.00071784 </v>
   <v>       0.00071784      -0.00071784      -0.00071784 </v>
   <v>       0.00071784       0.00071784       0.00071784 </v>
   <v>      -0.00006214      -0.00006214       0.00006214 </v>
   <v>      -0.00006214       0.00006214      -0.00006214 </v>
   <v>       0.00006214      -0.00006214      -0.00006214 </v>
   <v>       0.00006214       0.00006214       0.00006214 </v>
  </varray>
  <varray name="stress" >
   <v>      -0.06023651       0.00000000      -0.00000000 </v>
   <v>       0.00000000      -0.06023651       0.00000000 </v>
   <v>       0.00000000       0.00000000      -0.06023651 </v>
  </varray>
  <energy>
   <i name="e_fr_energy">    -80.83160179 </i>
   <i name="e_wo_entrp">    -80.82649551 </i>
   <i name="e_0_energy">     -0.01021256 </i>
  </energy>
  <time name="totalsc">   41.74   41.94</time>
 </calculation>
 <calculation>
  <scstep>
   <time name="dav">    4.85    4.86</time>
   <time name="total">    5.58    5.60</time>
   <energy>
    <i name="alphaZ">    505.00590286 </i>
    <i name="ewald">  -6075.94007126 </i>
    <i name="hartreedc">  -1947.55833523 </i>
    <i name="XCdc">    132.02563210 </i>
    <i name="pawpsdc">  10444.90753926 </i>
    <i name="pawaedc"> -10592.10864328 </i>
    <i name="eentropy">     -0.01021228 </i>
    <i name="bandstr">   -941.79050908 </i>
    <i name="atom">   8394.63709520 </i>
    <i name="e_fr_energy">    -80.83160171 </i>
    <i name="e_wo_entrp">    -80.82138942 </i>
    <i name="e_0_energy">    -80.82649556 </i>
   </energy>
  </scstep>
  <scstep>
   <time name="dav">    4.59    4.60</time>
   <time name="total">    5.32    5.34</time>
   <energy>
    <i name="e_fr_energy">    -80.83160229 </i>
    <i name="e_wo_entrp">    -80.82138927 </i>
    <i name="e_0_energy">    -80.82649578 </i>
   </energy>
  </scstep>
  <scstep>
   <time name="dav">    4.60    4.61</time>
   <time name="total">    5.32    5.35</time>
   <energy>
    <i name="e_fr_energy">    -80.83160232 </i>
    <i name="e_wo_entrp">    -80.82138789 </i>
    <i name="e_0_energy">    -80.82649510 </i>
   </energy>
  </scstep>
  <scstep>
   <time name="dav">    4.58    4.59</time>
   <time name="total">    5.31    5.33</time>
   <energy>
    <i name="e_fr_energy">    -80.83160231 </i>
    <i name="e_wo_entrp">    -80.82138572 </i>
    <i name="e_0_energy">    -80.82649402 </i>
   </energy>
  </scstep>
  <scstep>
   <time name="dav">    4.58    4.59</time>
   <time name="total">    5.30    5.33</time>
   <energy>
    <i name="e_fr_energy">    -80.83160237 </i>
    <i name="e_wo_entrp">    -80.82138423 </i>
    <i name="e_0_energy">    -80.82649330 </i>
   </energy>
  </scstep>
  <scstep>
   <time name="dav">    4.58    4.59</time>
   <time name="total">    4.86    4.89</time>
   <energy>
    <i name="alphaZ">    505.00590286 </i>
    <i name="ewald">  -6075.94007126 </i>
    <i name="hartreedc">  -1947.51899358 </i>
    <i name="XCdc">    132.02425864 </i>
    <i name="pawpsdc">  10444.98936785 </i>
    <i name="pawaedc"> -10592.19144924 </i>
    <i name="eentropy">     -0.01021940 </i>
    <i name="bandstr">   -941.82749350 </i>
    <i name="atom">   8394.63709520 </i>
    <i name="e_fr_energy">    -80.83160242 </i>
    <i name="e_wo_entrp">    -80.82138302 </i>
    <i name="e_0_energy">    -80.82649272 </i>
   </energy>
  </scstep>
  <structure>
   <crystal>
    <varray name="basis" >
     <v>       0.00000000       5.26323918       5.26323918 </v>
     <v>       5.26323918       0.00000000       5.26323918 </v>
     <v>       5.26323918       5.26323918      -0.00000000 </v>
    </varray>
    <i name="volume">    291.60120469 </i>
    <varray name="rec_basis" >
     <v>      -0.09499853       0.09499853       0.09499853 </v>
     <v>       0.09499853      -0.09499853       0.09499853 </v>
     <v>       0.09499853       0.09499853      -0.09499853 </v>
    </varray>
   </crystal>
   <varray name="positions" >
    <v>       0.60244298       0.60244298       0.19267105 </v>
    <v>       0.60244298       0.19267105       0.60244298 </v>
    <v>       0.19267105       0.60244298       0.60244298 </v>
    <v>       0.60244298       0.60244298       0.60244298 </v>
    <v>       0.00000000       0.00000000       0.00000000 </v>
    <v>       0.36398456       0.36398456       0.90804633 </v>
    <v>       0.36398456       0.90804633       0.36398456 </v>
    <v>       0.90804633       0.36398456       0.36398456 </v>
    <v>       0.36398456       0.36398456       0.36398456 </v>
    <v>       0.86499288       0.86499288       0.40502136 </v>
    <v>       0.86499288       0.40502136       0.86499288 </v>
    <v>       0.40502136       0.86499288       0.86499288 </v>
    <v>       0.86499288       0.86499288       0.86499288 </v>
   </varray>
  </structure>
  <varray name="forces" >
   <v>       0.00068699       0.00068699      -0.00068699 </v>
   <v>       0.00068699      -0.00068699       0.00068699 </v>
   <v>      -0.00068699       0.00068699       0.00068699 </v>
   <v>      -0.00068699      -0.00068699      -0.00068699 </v>
   <v>      -0.00000000      -0.00000000      -0.00000000 </v>
   <v>      -0.00071897      -0.00071897       0.00071897 </v>
   <v>      -0.00071897       0.00071897      -0.00071897 </v>
   <v>       0.00071897      -0.00071897      -0.00071897 </v>
   <v>       0.00071897       0.00071897       0.00071897 </v>
   <v>      -0.00017341      -0.00017341       0.00017341 </v>
   <v>      -0.00017341       0.00017341      -0.00017341 </v>
   <v>       0.00017341      -0.00017341      -0.00017341 </v>
   <v>       0.00017341       0.00017341       0.00017341 </v>
  </varray>
  <varray name="stress" >
   <v>      -0.07169483      -0.00000000       0.00000000 </v>
   <v>       0.00000000      -0.07169483       0.00000000 </v>
   <v>       0.00000000      -0.00000000      -0.07169483 </v>
  </varray>
  <energy>
   <i name="e_fr_energy">    -80.83160242 </i>
   <i name="e_wo_entrp">    -80.82649272 </i>
   <i name="e_0_energy">     -0.01021940 </i>
  </energy>
  <time name="totalsc">   40.26   40.44</time>
 </calculation>
 <calculation>
  <scstep>
   <time name="dav">    4.61    4.62</time>
   <time name="total">    5.33    5.35</time>
   <energy>
    <i name="alphaZ">    505.00855926 </i>
    <i name="ewald">  -6075.95976205 </i>
    <i name="hartreedc">  -1947.51107610 </i>
    <i name="XCdc">    132.02457772 </i>
    <i name="pawpsdc">  10444.96833047 </i>
    <i name="pawaedc"> -10592.17127798 </i>
    <i name="eentropy">     -0.01022146 </i>
    <i name="bandstr">   -941.81782754 </i>
    <i name="atom">   8394.63709520 </i>
    <i name="e_fr_energy">    -80.83160249 </i>
    <i name="e_wo_entrp">    -80.82138103 </i>
    <i name="e_0_energy">    -80.82649176 </i>
   </energy>
  </scstep>
  <scstep>
   <time name="dav">    4.58    4.59</time>
   <time name="total">    5.31    5.33</time>
   <energy>
    <i name="e_fr_energy">    -80.83160252 </i>
    <i name="e_wo_entrp">    -80.82138066 </i>
    <i name="e_0_energy">    -80.82649159 </i>
   </energy>
  </scstep>
  <scstep>
   <time name="dav">    4.58    4.59</time>
   <time name="total">    5.30    5.33</time>
   <energy>
    <i name="e_fr_energy">    -80.83160254 </i>
    <i name="e_wo_entrp">    -80.82137995 </i>
    <i name="e_0_energy">    -80.82649124 </i>
   </energy>
  </scstep>
  <scstep>
   <time name="dav">    4.58    4.59</time>
   <time name="total">    5.30    5.33</time>
   <energy>
    <i name="e_fr_energy">    -80.83160256 </i>
    <i name="e_wo_entrp">    -80.82137878 </i>
    <i name="e_0_energy">    -80.82649067 </i>
   </energy>
  </scstep>
  <scstep>
   <time name="dav">    4.58    4.59</time>
   <time name="total">    5.30    5.32</time>
   <energy>
    <i name="e_fr_energy">    -80.83160259 </i>
    <i name="e_wo_entrp">    -80.82137739 </i>
    <i name="e_0_energy">    -80.82648999 </i>
   </energy>
  </scstep>
  <scstep>
   <time name="dav">    4.58    4.59</time>
   <time name="total">    4.86    4.88</time>
   <energy>
    <i name="alphaZ">    505.00855926 </i>
    <i name="ewald">  -6075.95976205 </i>
    <i name="hartreedc">  -1947.50418907 </i>
    <i name="XCdc">    132.02432907 </i>
    <i name="pawpsdc">  10444.96937865 </i>
    <i name="pawaedc"> -10592.17253767 </i>
    <i name="eentropy">     -0.01022646 </i>
    <i name="bandstr">   -941.82424955 </i>
    <i name="atom">   8394.63709520 </i>
    <i name="e_fr_energy">    -80.83160261 </i>
    <i name="e_wo_entrp">    -80.82137615 </i>
    <i name="e_0_energy">    -80.82648938 </i>
   </energy>
  </scstep>
  <structure>
   <crystal>
    <varray name="basis" >
     <v>       0.00000000       5.26322995       5.26322995 </v>
     <v>       5.26322995       0.00000000       5.26322995 </v>
     <v>       5.26322995       5.26322995      -0.00000000 </v>
    </varray>
    <i name="volume">    291.59967084 </i>
    <varray name="rec_basis" >
     <v>      -0.09499870       0.09499870       0.09499870 </v>
     <v>       0.09499870      -0.09499870       0.09499870 </v>
     <v>       0.09499870       0.09499870      -0.09499870 </v>
    </varray>
   </crystal>
   <varray name="positions" >
    <v>       0.60244360       0.60244360       0.19266919 </v>
    <v>       0.60244360       0.19266919       0.60244360 </v>
    <v>       0.19266919       0.60244360       0.60244360 </v>
    <v>       0.60244360       0.60244360       0.60244360 </v>
    <v>       0.00000000       0.00000000       0.00000000 </v>
    <v>       0.36398451       0.36398451       0.90804648 </v>
    <v>       0.36398451       0.90804648       0.36398451 </v>
    <v>       0.90804648       0.36398451       0.36398451 </v>
    <v>       0.36398451       0.36398451       0.36398451 </v>
    <v>       0.86499280       0.86499280       0.40502161 </v>
    <v>       0.86499280       0.40502161       0.86499280 </v>
[...]
       <r>     0.9317     4.4712    35.9993 </r>
       <r>     1.0826     6.4283    36.9689 </r>
       <r>     1.2334     6.7550    37.9878 </r>
       <r>     1.3842     8.5733    39.2809 </r>
       <r>     1.5351    10.9646    40.9348 </r>
       <r>     1.6859    10.4071    42.5046 </r>
       <r>     1.8368     7.8505    43.6887 </r>
       <r>     1.9876     1.8372    43.9658 </r>
       <r>     2.1384     4.2971    44.6140 </r>
       <r>     2.2893     6.0740    45.5302 </r>
       <r>     2.4401     7.4034    46.6469 </r>
       <r>     2.5909     4.5755    47.3370 </r>
       <r>     2.7418     4.6066    48.0319 </r>
       <r>     2.8926     3.1959    48.5140 </r>
       <r>     3.0435     2.0763    48.8271 </r>
       <r>     3.1943     2.7278    49.2386 </r>
       <r>     3.3451     2.7954    49.6602 </r>
       <r>     3.4960     1.9884    49.9602 </r>
       <r>     3.6468     0.2699    50.0009 </r>
       <r>     3.7976     0.2962    50.0455 </r>
       <r>     3.9485     1.4617    50.2660 </r>
       <r>     4.0993     6.0935    51.1851 </r>
       <r>     4.2501     4.8781    51.9209 </r>
       <r>     4.4010     0.5242    52.0000 </r>
       <r>     4.5518     0.0225    52.0034 </r>
       <r>     4.7027     0.7107    52.1106 </r>
       <r>     4.8535     2.7045    52.5185 </r>
       <r>     5.0043     4.5668    53.2074 </r>
       <r>     5.1552    10.0380    54.7215 </r>
       <r>     5.3060     2.2257    55.0572 </r>
       <r>     5.4568     0.5968    55.1472 </r>
       <r>     5.6077     1.0791    55.3100 </r>
       <r>     5.7585     0.7294    55.4200 </r>
       <r>     5.9094     1.1000    55.5859 </r>
       <r>     6.0602     0.8371    55.7122 </r>
       <r>     6.2110     1.2478    55.9004 </r>
       <r>     6.3619     0.6593    55.9998 </r>
       <r>     6.5127     0.0011    56.0000 </r>
       <r>     6.6635     0.0318    56.0048 </r>
       <r>     6.8144     7.7117    57.1680 </r>
       <r>     6.9652     8.4975    58.4497 </r>
       <r>     7.1160     7.3523    59.5587 </r>
       <r>     7.2669     7.6941    60.7193 </r>
       <r>     7.4177     9.7661    62.1924 </r>
       <r>     7.5686     7.7994    63.3688 </r>
       <r>     7.7194     3.7899    63.9405 </r>
       <r>     7.8702     4.3875    64.6023 </r>
       <r>     8.0211     7.1464    65.6802 </r>
       <r>     8.1719     5.8450    66.5619 </r>
       <r>     8.3227     6.9418    67.6089 </r>
       <r>     8.4736     4.3559    68.2660 </r>
       <r>     8.6244     2.5946    68.6573 </r>
       <r>     8.7752     5.5866    69.5000 </r>
       <r>     8.9261     2.9993    69.9524 </r>
       <r>     9.0769     4.6166    70.6487 </r>
       <r>     9.2278     2.9364    71.0917 </r>
       <r>     9.3786     1.6366    71.3385 </r>
       <r>     9.5294     1.7951    71.6093 </r>
       <r>     9.6803     0.7071    71.7159 </r>
       <r>     9.8311     0.9728    71.8627 </r>
       <r>     9.9819     0.6146    71.9554 </r>
       <r>    10.1328     0.2957    72.0000 </r>
       <r>    10.2836     0.0001    72.0000 </r>
       <r>    10.4345     0.0000    72.0000 </r>
       <r>    10.5853     0.0000    72.0000 </r>
       <r>    10.7361     0.0000    72.0000 </r>
       <r>    10.8870     0.0000    72.0000 </r>
       <r>    11.0378     0.0000    72.0000 </r>
       <r>    11.1886     0.0000    72.0000 </r>
       <r>    11.3395     0.0000    72.0000 </r>
       <r>    11.4903     0.0000    72.0000 </r>
       <r>    11.6411     0.0000    72.0000 </r>
       <r>    11.7920     0.0000    72.0000 </r>
       <r>    11.9428     0.0000    72.0000 </r>
       <r>    12.0937     0.0000    72.0000 </r>
      </set>
      <set comment="spin 2">
       <r>   -33.1574     0.0000     0.0000 </r>
       <r>   -33.0065     0.0000     0.0000 </r>
       <r>   -32.8557     0.0000     0.0000 </r>
       <r>   -32.7049     0.0000     0.0000 </r>
       <r>   -32.5540     0.0000     0.0000 </r>
       <r>   -32.4032     0.0000     0.0000 </r>
       <r>   -32.2524     0.0000     0.0000 </r>
       <r>   -32.1015     0.0000     0.0000 </r>
       <r>   -31.9507     0.0000     0.0000 </r>
       <r>   -31.7999     0.0000     0.0000 </r>
       <r>   -31.6490     0.0000     0.0000 </r>
       <r>   -31.4982     0.0000     0.0000 </r>
       <r>   -31.3473     0.0000     0.0000 </r>
       <r>   -31.1965     0.0001     0.0000 </r>
       <r>   -31.0457     3.7298     0.5626 </r>
       <r>   -30.8948     5.7643     1.4321 </r>
       <r>   -30.7440    27.8950     5.6397 </r>
       <r>   -30.5932    40.7061    11.7796 </r>
       <r>   -30.4423     1.4609    12.0000 </r>
       <r>   -30.2915     0.0000    12.0000 </r>
       <r>   -30.1406     0.0000    12.0000 </r>
       <r>   -29.9898     0.0000    12.0000 </r>
       <r>   -29.8390     0.0000    12.0000 </r>
       <r>   -29.6881     0.0000    12.0000 </r>
       <r>   -29.5373     0.0000    12.0000 </r>
       <r>   -29.3865     0.0000    12.0000 </r>
       <r>   -29.2356     0.0000    12.0000 </r>
       <r>   -29.0848     0.0000    12.0000 </r>
       <r>   -28.9340     0.0000    12.0000 </r>
       <r>   -28.7831     0.0000    12.0000 </r>
       <r>   -28.6323     0.0000    12.0000 </r>
       <r>   -28.4814     0.0000    12.0000 </r>
       <r>   -28.3306     0.0000    12.0000 </r>
       <r>   -28.1798     0.0000    12.0000 </r>
       <r>   -28.0289     0.0000    12.0000 </r>
       <r>   -27.8781     0.0000    12.0000 </r>
       <r>   -27.7273     0.0000    12.0000 </r>
       <r>   -27.5764     0.0000    12.0000 </r>
       <r>   -27.4256     0.0000    12.0000 </r>
       <r>   -27.2747     0.0000    12.0000 </r>
       <r>   -27.1239     0.0000    12.0000 </r>
       <r>   -26.9731     0.0000    12.0000 </r>
       <r>   -26.8222     0.0000    12.0000 </r>
       <r>   -26.6714     0.0000    12.0000 </r>
       <r>   -26.5206     0.0000    12.0000 </r>
       <r>   -26.3697     0.0000    12.0000 </r>
       <r>   -26.2189     0.0000    12.0000 </r>
       <r>   -26.0681     0.0000    12.0000 </r>
       <r>   -25.9172     0.0000    12.0000 </r>
       <r>   -25.7664     0.0000    12.0000 </r>
       <r>   -25.6155     0.0000    12.0000 </r>
       <r>   -25.4647     0.0000    12.0000 </r>
       <r>   -25.3139     0.0000    12.0000 </r>
       <r>   -25.1630     0.0000    12.0000 </r>
       <r>   -25.0122     0.0000    12.0000 </r>
       <r>   -24.8614     0.0000    12.0000 </r>
       <r>   -24.7105     0.0000    12.0000 </r>
       <r>   -24.5597     0.0000    12.0000 </r>
       <r>   -24.4088     0.0000    12.0000 </r>
       <r>   -24.2580     0.0000    12.0000 </r>
       <r>   -24.1072     0.0000    12.0000 </r>
       <r>   -23.9563     0.0000    12.0000 </r>
       <r>   -23.8055     0.0000    12.0000 </r>
       <r>   -23.6547     0.0000    12.0000 </r>
       <r>   -23.5038     0.0000    12.0000 </r>
       <r>   -23.3530     0.0000    12.0000 </r>
       <r>   -23.2022     0.0000    12.0000 </r>
       <r>   -23.0513     0.0000    12.0000 </r>
       <r>   -22.9005     0.0000    12.0000 </r>
       <r>   -22.7496     0.0000    12.0000 </r>
       <r>   -22.5988     0.0000    12.0000 </r>
       <r>   -22.4480     0.0000    12.0000 </r>
       <r>   -22.2971     0.0000    12.0000 </r>
       <r>   -22.1463     0.0000    12.0000 </r>
       <r>   -21.9955     0.0000    12.0000 </r>
       <r>   -21.8446     0.0000    12.0000 </r>
       <r>   -21.6938     0.0000    12.0000 </r>
       <r>   -21.5429     0.0000    12.0000 </r>
       <r>   -21.3921     0.0000    12.0000 </r>
       <r>   -21.2413     0.0000    12.0000 </r>
       <r>   -21.0904     0.0000    12.0000 </r>
       <r>   -20.9396     0.0000    12.0000 </r>
       <r>   -20.7888     0.0000    12.0000 </r>
       <r>   -20.6379     0.0000    12.0000 </r>
       <r>   -20.4871     0.0000    12.0000 </r>
       <r>   -20.3363     0.0000    12.0000 </r>
       <r>   -20.1854     0.0000    12.0000 </r>
       <r>   -20.0346     0.0000    12.0000 </r>
       <r>   -19.8837     0.0000    12.0000 </r>
       <r>   -19.7329     0.0000    12.0000 </r>
       <r>   -19.5821     0.0000    12.0000 </r>
       <r>   -19.4312     0.0000    12.0000 </r>
       <r>   -19.2804     0.0000    12.0000 </r>
       <r>   -19.1296     0.0000    12.0000 </r>
       <r>   -18.9787     0.0000    12.0000 </r>
       <r>   -18.8279     0.0000    12.0000 </r>
       <r>   -18.6771     0.0000    12.0000 </r>
       <r>   -18.5262     0.0000    12.0000 </r>
       <r>   -18.3754     0.0000    12.0000 </r>
       <r>   -18.2245     0.0000    12.0000 </r>
       <r>   -18.0737     0.0000    12.0000 </r>
       <r>   -17.9229     0.0000    12.0000 </r>
       <r>   -17.7720     0.0000    12.0000 </r>
       <r>   -17.6212     0.0000    12.0000 </r>
       <r>   -17.4704     0.0000    12.0000 </r>
       <r>   -17.3195     0.0000    12.0000 </r>
       <r>   -17.1687     0.0000    12.0000 </r>
       <r>   -17.0178     0.0000    12.0000 </r>
       <r>   -16.8670     0.0000    12.0000 </r>
       <r>   -16.7162     0.0000    12.0000 </r>
       <r>   -16.5653     0.0000    12.0000 </r>
       <r>   -16.4145     0.0000    12.0000 </r>
       <r>   -16.2637     0.0000    12.0000 </r>
       <r>   -16.1128     0.0000    12.0000 </r>
       <r>   -15.9620     0.0000    12.0000 </r>
       <r>   -15.8112     0.0000    12.0000 </r>
       <r>   -15.6603     0.0000    12.0000 </r>
       <r>   -15.5095     0.0000    12.0000 </r>
       <r>   -15.3586     0.0000    12.0000 </r>
       <r>   -15.2078     0.0000    12.0000 </r>
       <r>   -15.0570     0.0000    12.0000 </r>
       <r>   -14.9061     0.0000    12.0000 </r>
       <r>   -14.7553     0.0000    12.0000 </r>
       <r>   -14.6045     0.0000    12.0000 </r>
       <r>   -14.4536     0.0000    12.0000 </r>
       <r>   -14.3028     0.0000    12.0000 </r>
       <r>   -14.1519     0.0000    12.0000 </r>
       <r>   -14.0011     0.0000    12.0000 </r>
       <r>   -13.8503     0.0000    12.0000 </r>
       <r>   -13.6994     0.0000    12.0000 </r>
       <r>   -13.5486     0.0000    12.0000 </r>
       <r>   -13.3978     0.0000    12.0000 </r>
       <r>   -13.2469     0.0000    12.0000 </r>
       <r>   -13.0961     0.0000    12.0000 </r>
       <r>   -12.9453     4.4015    12.6639 </r>
       <r>   -12.7944    22.6192    16.0757 </r>
       <r>   -12.6436     6.1276    17.0000 </r>
       <r>   -12.4927     0.0001    17.0000 </r>
       <r>   -12.3419     0.0000    17.0000 </r>
       <r>   -12.1911     0.0000    17.0000 </r>
       <r>   -12.0402     0.0000    17.0000 </r>
       <r>   -11.8894     0.0000    17.0000 </r>
       <r>   -11.7386     0.0000    17.0000 </r>
       <r>   -11.5877     0.0000    17.0000 </r>
       <r>   -11.4369     0.0000    17.0000 </r>
       <r>   -11.2860     0.0000    17.0000 </r>
       <r>   -11.1352     0.0000    17.0000 </r>
       <r>   -10.9844     0.0000    17.0000 </r>
       <r>   -10.8335     0.0000    17.0000 </r>
       <r>   -10.6827     0.0000    17.0000 </r>
       <r>   -10.5319     0.0000    17.0000 </r>
       <r>   -10.3810     0.0000    17.0000 </r>
       <r>   -10.2302     0.0000    17.0000 </r>
       <r>   -10.0794     0.0317    17.0048 </r>
       <r>    -9.9285     0.4769    17.0767 </r>
       <r>    -9.7777     0.9066    17.2135 </r>
       <r>    -9.6268     1.3264    17.4135 </r>
       <r>    -9.4760     1.8778    17.6968 </r>
       <r>    -9.3252     1.6613    17.9474 </r>
       <r>    -9.1743     1.5694    18.1841 </r>
       <r>    -9.0235     3.2202    18.6698 </r>
       <r>    -8.8727     4.4309    19.3382 </r>
       <r>    -8.7218     6.4922    20.3174 </r>
       <r>    -8.5710     6.4668    21.2928 </r>
       <r>    -8.4201    12.4538    23.1713 </r>
       <r>    -8.2693    12.0045    24.9821 </r>
       <r>    -8.1185     0.1189    25.0000 </r>
       <r>    -7.9676     0.0000    25.0000 </r>
       <r>    -7.8168     0.0000    25.0000 </r>
       <r>    -7.6660     0.0000    25.0000 </r>
       <r>    -7.5151     0.0000    25.0000 </r>
       <r>    -7.3643     0.0000    25.0000 </r>
       <r>    -7.2135     0.0000    25.0000 </r>
       <r>    -7.0626     0.0000    25.0000 </r>
       <r>    -6.9118     0.0000    25.0000 </r>
       <r>    -6.7609     0.0000    25.0000 </r>
       <r>    -6.6101     0.0000    25.0000 </r>
       <r>    -6.4593     0.0000    25.0000 </r>
       <r>    -6.3084     0.0000    25.0000 </r>
       <r>    -6.1576     0.0000    25.0000 </r>
       <r>    -6.0068     0.0000    25.0000 </r>
       <r>    -5.8559     0.0000    25.0000 </r>
       <r>    -5.7051     0.0000    25.0000 </r>
       <r>    -5.5542     0.0000    25.0000 </r>
       <r>    -5.4034     0.0000    25.0000 </r>
       <r>    -5.2526     0.0000    25.0000 </r>
       <r>    -5.1017     0.0000    25.0000 </r>
       <r>    -4.9509     0.0000    25.0000 </r>
       <r>    -4.8001     0.0000    25.0000 </r>
       <r>    -4.6492     0.0000    25.0000 </r>
       <r>    -4.4984     0.0000    25.0000 </r>
       <r>    -4.3476     0.0000    25.0000 </r>
       <r>    -4.1967     0.0000    25.0000 </r>
       <r>    -4.0459     0.0000    25.0000 </r>
       <r>    -3.8950     0.0000    25.0000 </r>
       <r>    -3.7442     0.0000    25.0000 </r>
       <r>    -3.5934     0.0000    25.0000 </r>
       <r>    -3.4425     0.0000    25.0000 </r>
       <r>    -3.2917     0.0354    25.0053 </r>
       <r>    -3.1409     0.1868    25.0335 </r>
       <r>    -2.9900     0.3392    25.0847 </r>
       <r>    -2.8392     0.5623    25.1695 </r>
       <r>    -2.6883     0.5672    25.2551 </r>
       <r>    -2.5375     1.1421    25.4273 </r>
       <r>    -2.3867     1.5237    25.6572 </r>
       <r>    -2.2358     1.6057    25.8993 </r>
       <r>    -2.0850     0.6670    26.0000 </r>
       <r>    -1.9342     0.0003    26.0000 </r>
       <r>    -1.7833     0.0000    26.0000 </r>
       <r>    -1.6325     0.0772    26.0116 </r>
       <r>    -1.4817     0.6841    26.1148 </r>
       <r>    -1.3308     1.3786    26.3228 </r>
       <r>    -1.1800     4.8518    27.0546 </r>
       <r>    -1.0291     5.1916    27.8377 </r>
       <r>    -0.8783     4.6434    28.5381 </r>
       <r>    -0.7275     3.7756    29.1076 </r>
       <r>    -0.5766     4.4274    29.7754 </r>
       <r>    -0.4258     1.8243    30.0505 </r>
       <r>    -0.2750     3.2693    30.5437 </r>
       <r>    -0.1241     7.2564    31.6382 </r>
       <r>     0.0267     5.6065    32.4839 </r>
       <r>     0.1776     2.3764    32.8423 </r>
       <r>     0.3284     2.4773    33.2160 </r>
       <r>     0.4792     2.9968    33.6680 </r>
       <r>     0.6301     5.2364    34.4579 </r>
       <r>     0.7809     5.4319    35.2772 </r>
       <r>     0.9317     4.1545    35.9039 </r>
       <r>     1.0826     6.4065    36.8702 </r>
       <r>     1.2334     6.7782    37.8926 </r>
       <r>     1.3842     8.1739    39.1255 </r>
       <r>     1.5351    10.7451    40.7463 </r>
       <r>     1.6859    10.8574    42.3840 </r>
       <r>     1.8368     8.1535    43.6138 </r>
       <r>     1.9876     2.0734    43.9265 </r>
       <r>     2.1384     4.1860    44.5579 </r>
       <r>     2.2893     5.8365    45.4383 </r>
       <r>     2.4401     7.5470    46.5767 </r>
       <r>     2.5909     4.6439    47.2771 </r>
       <r>     2.7418     4.7330    47.9910 </r>
       <r>     2.8926     3.1493    48.4661 </r>
       <r>     3.0435     2.1597    48.7918 </r>
       <r>     3.1943     2.1706    49.1192 </r>
       <r>     3.3451     2.7594    49.5355 </r>
       <r>     3.4960     2.2565    49.8758 </r>
       <r>     3.6468     0.8169    49.9990 </r>
       <r>     3.7976     0.1068    50.0151 </r>
       <r>     3.9485     0.7655    50.1306 </r>
       <r>     4.0993     3.2446    50.6200 </r>
       <r>     4.2501     6.6266    51.6196 </r>
       <r>     4.4010     2.5094    51.9981 </r>
       <r>     4.5518     0.0131    52.0000 </r>
       <r>     4.7027     0.2301    52.0347 </r>
       <r>     4.8535     1.4362    52.2514 </r>
       <r>     5.0043     4.1097    52.8713 </r>
       <r>     5.1552     6.9667    53.9221 </r>
       <r>     5.3060     7.2594    55.0171 </r>
       <r>     5.4568     0.7859    55.1356 </r>
       <r>     5.6077     1.0753    55.2978 </r>
       <r>     5.7585     0.6086    55.3896 </r>
       <r>     5.9094     1.1291    55.5599 </r>
       <r>     6.0602     0.7628    55.6750 </r>
       <r>     6.2110     1.2961    55.8705 </r>
       <r>     6.3619     0.8485    55.9985 </r>
       <r>     6.5127     0.0101    56.0000 </r>
       <r>     6.6635     0.0025    56.0004 </r>
       <r>     6.8144     4.1384    56.6246 </r>
       <r>     6.9652    10.6315    58.2282 </r>
       <r>     7.1160     6.3967    59.1931 </r>
       <r>     7.2669     8.1938    60.4290 </r>
       <r>     7.4177     7.1888    61.5133 </r>
       <r>     7.5686     9.8510    62.9992 </r>
       <r>     7.7194     5.4384    63.8196 </r>
       <r>     7.8702     3.4241    64.3360 </r>
       <r>     8.0211     6.2653    65.2811 </r>
       <r>     8.1719     6.9993    66.3368 </r>
       <r>     8.3227     7.0315    67.3974 </r>
       <r>     8.4736     5.2001    68.1818 </r>
       <r>     8.6244     2.3592    68.5376 </r>
       <r>     8.7752     5.1146    69.3091 </r>
       <r>     8.9261     3.7469    69.8743 </r>
       <r>     9.0769     4.6563    70.5766 </r>
       <r>     9.2278     2.9519    71.0219 </r>
       <r>     9.3786     1.8294    71.2978 </r>
       <r>     9.5294     1.8559    71.5777 </r>
       <r>     9.6803     0.7236    71.6869 </r>
       <r>     9.8311     1.0929    71.8517 </r>
       <r>     9.9819     0.5504    71.9348 </r>
       <r>    10.1328     0.4317    71.9999 </r>
       <r>    10.2836     0.0007    72.0000 </r>
       <r>    10.4345     0.0000    72.0000 </r>
       <r>    10.5853     0.0000    72.0000 </r>
       <r>    10.7361     0.0000    72.0000 </r>
       <r>    10.8870     0.0000    72.0000 </r>
       <r>    11.0378     0.0000    72.0000 </r>
       <r>    11.1886     0.0000    72.0000 </r>
       <r>    11.3395     0.0000    72.0000 </r>
       <r>    11.4903     0.0000    72.0000 </r>
       <r>    11.6411     0.0000    72.0000 </r>
       <r>    11.7920     0.0000    72.0000 </r>
       <r>    11.9428     0.0000    72.0000 </r>
       <r>    12.0937     0.0000    72.0000 </r>
      </set>
     </set>
    </array>
   </total>
  </dos>
 </calculation>
 <structure name="finalpos" >
  <crystal>
   <varray name="basis" >
    <v>       0.00000000       5.26313793       5.26313793 </v>
    <v>       5.26313793      -0.00000000       5.26313793 </v>
    <v>       5.26313793       5.26313793      -0.00000000 </v>
   </varray>
   <i name="volume">    291.58437625 </i>
   <varray name="rec_basis" >
    <v>      -0.09500036       0.09500036       0.09500036 </v>
    <v>       0.09500036      -0.09500036       0.09500036 </v>
    <v>       0.09500036       0.09500036      -0.09500036 </v>
   </varray>
  </crystal>
  <varray name="positions" >
   <v>       0.60244294       0.60244294       0.19267118 </v>
   <v>       0.60244294       0.19267118       0.60244294 </v>
   <v>       0.19267118       0.60244294       0.60244294 </v>
   <v>       0.60244294       0.60244294       0.60244294 </v>
   <v>       0.00000000       0.00000000       0.00000000 </v>
   <v>       0.36398549       0.36398549       0.90804353 </v>
   <v>       0.36398549       0.90804353       0.36398549 </v>
   <v>       0.90804353       0.36398549       0.36398549 </v>
   <v>       0.36398549       0.36398549       0.36398549 </v>
   <v>       0.86499305       0.86499305       0.40502086 </v>
   <v>       0.86499305       0.40502086       0.86499305 </v>
   <v>       0.40502086       0.86499305       0.86499305 </v>
   <v>       0.86499305       0.86499305       0.86499305 </v>
  </varray>
 </structure>
</modeling>
