unknown system                          
           1
     0.000000    5.263174    5.263174
     5.263174    0.000000    5.263174
     5.263174    5.263174   -0.000000
   Ta   Ga   Se
   4   1   8
Direct configuration=     1
   0.60236569  0.60236569  0.19290293
   0.60236569  0.19290293  0.60236569
   0.19290293  0.60236569  0.60236569
   0.60236569  0.60236569  0.60236569
   0.00000000  0.00000000  0.00000000
   0.36400740  0.36400740  0.90797780
   0.36400740  0.90797780  0.36400740
   0.90797780  0.36400740  0.36400740
   0.36400740  0.36400740  0.36400740
   0.86500044  0.86500044  0.40499867
   0.86500044  0.40499867  0.86500044
   0.40499867  0.86500044  0.86500044
   0.86500044  0.86500044  0.86500044
unknown system                          
           1
     0.000000    5.263469    5.263469
     5.263469    0.000000    5.263469
     5.263469    5.263469   -0.000000
   Ta   Ga   Se
   4   1   8
Direct configuration=     2
   0.60237490  0.60237490  0.19287531
   0.60237490  0.19287531  0.60237490
   0.19287531  0.60237490  0.60237490
   0.60237490  0.60237490  0.60237490
   0.00000000  0.00000000  0.00000000
   0.36400211  0.36400211  0.90799366
   0.36400211  0.90799366  0.36400211
   0.90799366  0.36400211  0.36400211
   0.36400211  0.36400211  0.36400211
   0.86499999  0.86499999  0.40500002
   0.86499999  0.40500002  0.86499999
   0.40500002  0.86499999  0.86499999
   0.86499999  0.86499999  0.86499999
unknown system                          
           1
     0.000000    5.264058    5.264058
     5.264058    0.000000    5.264058
     5.264058    5.264058   -0.000000
   Ta   Ga   Se
   4   1   8
Direct configuration=     3
   0.60238499  0.60238499  0.19284503
   0.60238499  0.19284503  0.60238499
   0.19284503  0.60238499  0.60238499
   0.60238499  0.60238499  0.60238499
   0.00000000  0.00000000  0.00000000
   0.36399632  0.36399632  0.90801105
   0.36399632  0.90801105  0.36399632
   0.90801105  0.36399632  0.36399632
   0.36399632  0.36399632  0.36399632
   0.86499950  0.86499950  0.40500150
   0.86499950  0.40500150  0.86499950
   0.40500150  0.86499950  0.86499950
   0.86499950  0.86499950  0.86499950
unknown system                          
           1
     0.000000    5.263793    5.263793
     5.263793    0.000000    5.263793
     5.263793    5.263793   -0.000000
   Ta   Ga   Se
   4   1   8
Direct configuration=     4
   0.60240518  0.60240518  0.19278447
   0.60240518  0.19278447  0.60240518
   0.19278447  0.60240518  0.60240518
   0.60240518  0.60240518  0.60240518
   0.00000000  0.00000000  0.00000000
   0.36398473  0.36398473  0.90804582
   0.36398473  0.90804582  0.36398473
   0.90804582  0.36398473  0.36398473
   0.36398473  0.36398473  0.36398473
   0.86499851  0.86499851  0.40500446
   0.86499851  0.40500446  0.86499851
   0.40500446  0.86499851  0.86499851
   0.86499851  0.86499851  0.86499851
unknown system                          
           1
     0.000000    5.263887    5.263887
     5.263887    0.000000    5.263887
     5.263887    5.263887   -0.000000
   Ta   Ga   Se
   4   1   8
Direct configuration=     5
   0.60239610  0.60239610  0.19281171
   0.60239610  0.19281171  0.60239610
   0.19281171  0.60239610  0.60239610
   0.60239610  0.60239610  0.60239610
   0.00000000  0.00000000  0.00000000
   0.36398994  0.36398994  0.90803018
   0.36398994  0.90803018  0.36398994
   0.90803018  0.36398994  0.36398994
   0.36398994  0.36398994  0.36398994
   0.86499896  0.86499896  0.40500313
   0.86499896  0.40500313  0.86499896
   0.40500313  0.86499896  0.86499896
   0.86499896  0.86499896  0.86499896
unknown system                          
           1
     0.000000    5.263774    5.263774
     5.263774    0.000000    5.263774
     5.263774    5.263774   -0.000000
   Ta   Ga   Se
   4   1   8
Direct configuration=     6
   0.60239933  0.60239933  0.19280201
   0.60239933  0.19280201  0.60239933
   0.19280201  0.60239933  0.60239933
   0.60239933  0.60239933  0.60239933
   0.00000000  0.00000000  0.00000000
   0.36398808  0.36398808  0.90803575
   0.36398808  0.90803575  0.36398808
   0.90803575  0.36398808  0.36398808
   0.36398808  0.36398808  0.36398808
   0.86499880  0.86499880  0.40500360
   0.86499880  0.40500360  0.86499880
   0.40500360  0.86499880  0.86499880
   0.86499880  0.86499880  0.86499880
unknown system                          
           1
     0.000000    5.263436    5.263436
     5.263436    0.000000    5.263436
     5.263436    5.263436   -0.000000
   Ta   Ga   Se
   4   1   8
Direct configuration=     7
   0.60240694  0.60240694  0.19277919
   0.60240694  0.19277919  0.60240694
   0.19277919  0.60240694  0.60240694
   0.60240694  0.60240694  0.60240694
   0.00000000  0.00000000  0.00000000
   0.36398747  0.36398747  0.90803759
   0.36398747  0.90803759  0.36398747
   0.90803759  0.36398747  0.36398747
   0.36398747  0.36398747  0.36398747
   0.86499777  0.86499777  0.40500670
   0.86499777  0.40500670  0.86499777
   0.40500670  0.86499777  0.86499777
   0.86499777  0.86499777  0.86499777
unknown system                          
           1
     0.000000    5.263287    5.263287
     5.263287    0.000000    5.263287
     5.263287    5.263287   -0.000000
   Ta   Ga   Se
   4   1   8
Direct configuration=     8
   0.60242976  0.60242976  0.19271073
   0.60242976  0.19271073  0.60242976
   0.19271073  0.60242976  0.60242976
   0.60242976  0.60242976  0.60242976
   0.00000000  0.00000000  0.00000000
   0.36398563  0.36398563  0.90804312
   0.36398563  0.90804312  0.36398563
   0.90804312  0.36398563  0.36398563
   0.36398563  0.36398563  0.36398563
   0.86499467  0.86499467  0.40501598
   0.86499467  0.40501598  0.86499467
   0.40501598  0.86499467  0.86499467
   0.86499467  0.86499467  0.86499467
unknown system                          
           1
     0.000000    5.263239    5.263239
     5.263239    0.000000    5.263239
     5.263239    5.263239   -0.000000
   Ta   Ga   Se
   4   1   8
Direct configuration=     9
   0.60243979  0.60243979  0.19268063
   0.60243979  0.19268063  0.60243979
   0.19268063  0.60243979  0.60243979
   0.60243979  0.60243979  0.60243979
   0.00000000  0.00000000  0.00000000
   0.36398481  0.36398481  0.90804556
   0.36398481  0.90804556  0.36398481
   0.90804556  0.36398481  0.36398481
   0.36398481  0.36398481  0.36398481
   0.86499331  0.86499331  0.40502006
   0.86499331  0.40502006  0.86499331
   0.40502006  0.86499331  0.86499331
   0.86499331  0.86499331  0.86499331
unknown system                          
           1
     0.000000    5.263230    5.263230
     5.263230    0.000000    5.263230
     5.263230    5.263230   -0.000000
   Ta   Ga   Se
   4   1   8
Direct configuration=    10
   0.60244298  0.60244298  0.19267105
   0.60244298  0.19267105  0.60244298
   0.19267105  0.60244298  0.60244298
   0.60244298  0.60244298  0.60244298
   0.00000000  0.00000000  0.00000000
   0.36398456  0.36398456  0.90804633
   0.36398456  0.90804633  0.36398456
   0.90804633  0.36398456  0.36398456
   0.36398456  0.36398456  0.36398456
   0.86499288  0.86499288  0.40502136
   0.86499288  0.40502136  0.86499288
   0.40502136  0.86499288  0.86499288
   0.86499288  0.86499288  0.86499288
unknown system                          
           1
     0.000000    5.263211    5.263211
     5.263211    0.000000    5.263211
     5.263211    5.263211   -0.000000
   Ta   Ga   Se
   4   1   8
Direct configuration=    11
   0.60244360  0.60244360  0.19266919
   0.60244360  0.19266919  0.60244360
   0.19266919  0.60244360  0.60244360
   0.60244360  0.60244360  0.60244360
   0.00000000  0.00000000  0.00000000
   0.36398451  0.36398451  0.90804648
   0.36398451  0.90804648  0.36398451
   0.90804648  0.36398451  0.36398451
   0.36398451  0.36398451  0.36398451
   0.86499280  0.86499280  0.40502161
   0.86499280  0.40502161  0.86499280
   0.40502161  0.86499280  0.86499280
   0.86499280  0.86499280  0.86499280
unknown system                          
           1
     0.000000    5.263220    5.263220
     5.263220    0.000000    5.263220
     5.263220    5.263220   -0.000000
   Ta   Ga   Se
   4   1   8
Direct configuration=    12
   0.60244485  0.60244485  0.19266546
   0.60244485  0.19266546  0.60244485
   0.19266546  0.60244485  0.60244485
   0.60244485  0.60244485  0.60244485
   0.00000000  0.00000000  0.00000000
   0.36398441  0.36398441  0.90804678
   0.36398441  0.90804678  0.36398441
   0.90804678  0.36398441  0.36398441
   0.36398441  0.36398441  0.36398441
   0.86499263  0.86499263  0.40502212
   0.86499263  0.40502212  0.86499263
   0.40502212  0.86499263  0.86499263
   0.86499263  0.86499263  0.86499263
unknown system                          
           1
     0.000000    5.263216    5.263216
     5.263216    0.000000    5.263216
     5.263216    5.263216   -0.000000
   Ta   Ga   Se
   4   1   8
Direct configuration=    13
   0.60244427  0.60244427  0.19266720
   0.60244427  0.19266720  0.60244427
   0.19266720  0.60244427  0.60244427
   0.60244427  0.60244427  0.60244427
   0.00000000  0.00000000  0.00000000
   0.36398445  0.36398445  0.90804664
   0.36398445  0.90804664  0.36398445
   0.90804664  0.36398445  0.36398445
   0.36398445  0.36398445  0.36398445
   0.86499271  0.86499271  0.40502188
   0.86499271  0.40502188  0.86499271
   0.40502188  0.86499271  0.86499271
   0.86499271  0.86499271  0.86499271
unknown system                          
           1
     0.000000    5.263138    5.263138
     5.263138   -0.000000    5.263138
     5.263138    5.263138   -0.000000
   Ta   Ga   Se
   4   1   8
Direct configuration=    14
   0.60244456  0.60244456  0.19266631
   0.60244456  0.19266631  0.60244456
   0.19266631  0.60244456  0.60244456
   0.60244456  0.60244456  0.60244456
   0.00000000  0.00000000  0.00000000
   0.36398443  0.36398443  0.90804671
   0.36398443  0.90804671  0.36398443
   0.90804671  0.36398443  0.36398443
   0.36398443  0.36398443  0.36398443
   0.86499267  0.86499267  0.40502200
   0.86499267  0.40502200  0.86499267
   0.40502200  0.86499267  0.86499267
   0.86499267  0.86499267  0.86499267
unknown system                          
           1
     0.000000    5.263138    5.263138
     5.263138   -0.000000    5.263138
     5.263138    5.263138   -0.000000
   Ta   Ga   Se
   4   1   8
Direct configuration=    15
   0.60244294  0.60244294  0.19267118
   0.60244294  0.19267118  0.60244294
   0.19267118  0.60244294  0.60244294
   0.60244294  0.60244294  0.60244294
   0.00000000  0.00000000  0.00000000
   0.36398549  0.36398549  0.90804353
   0.36398549  0.90804353  0.36398549
   0.90804353  0.36398549  0.36398549
   0.36398549  0.36398549  0.36398549
   0.86499305  0.86499305  0.40502086
   0.86499305  0.40502086  0.86499305
   0.40502086  0.86499305  0.86499305
   0.86499305  0.86499305  0.86499305
