       N       E                     dE             d eps       ncg     rms          rms(c)
DAV:   1    -0.575575301874E+03    0.19959E-01   -0.76818E+00  1536   0.438E+00    0.120E+00
DAV:   2    -0.575587885872E+03   -0.12584E-01   -0.11723E-01  1596   0.551E-01    0.127E+00
DAV:   3    -0.575585230224E+03    0.26556E-02   -0.51430E-03  1704   0.193E-01    0.858E-01
DAV:   4    -0.575586981925E+03   -0.17517E-02   -0.17594E-03  1524   0.103E-01    0.520E-01
DAV:   5    -0.575587627705E+03   -0.64578E-03   -0.22751E-03  1596   0.956E-02    0.326E-01
DAV:   6    -0.575587893231E+03   -0.26553E-03   -0.56489E-04  1452   0.644E-02    0.201E-01
DAV:   7    -0.575588146072E+03   -0.25284E-03   -0.37712E-04  1248   0.390E-02    0.860E-02
DAV:   8    -0.575588196031E+03   -0.49959E-04   -0.71530E-05  1104   0.258E-02
  40 F= -.57558820E+03 E0= -.57557015E+03  d E =0.713338E-02  mag=    43.0000
 BRION: g(F)=  0.145E-03 g(S)=  0.000E+00
 BRIONS problems: POTIM should be increased
 retain N=  1 mean eig=93.69
 eig:  93.685
