  13  13   0   0
  0.1919617E+02  0.7066825E-09  0.7066825E-09  0.7066825E-09  0.5000000E-16
  1.000000000000000E-004
  CAR 
 matgen                                  
     14.05999315    -31.47380207  301      6.32850511      1.00000000
    -31.474  0.0000E+00  0.0000E+00  0.0000E+00  0.0000E+00
    -31.322  0.0000E+00  0.0000E+00  0.0000E+00  0.0000E+00
    -31.170  0.0000E+00  0.0000E+00  0.0000E+00  0.0000E+00
    -31.018  0.0000E+00  0.0000E+00  0.0000E+00  0.0000E+00
    -30.867  0.0000E+00  0.0000E+00  0.0000E+00  0.0000E+00
    -30.715  0.0000E+00  0.0000E+00  0.0000E+00  0.0000E+00
    -30.563  0.0000E+00  0.0000E+00  0.0000E+00  0.0000E+00
    -30.411  0.0000E+00  0.0000E+00  0.0000E+00  0.0000E+00
    -30.260  0.0000E+00  0.0000E+00  0.0000E+00  0.0000E+00
    -30.108  0.0000E+00  0.0000E+00  0.0000E+00  0.0000E+00
    -29.956  0.0000E+00  0.0000E+00  0.0000E+00  0.0000E+00
    -29.804  0.0000E+00  0.0000E+00  0.0000E+00  0.0000E+00
    -29.652  0.7512E-12  0.2004E-12  0.1140E-12  0.3042E-13
    -29.501  0.6804E-02  0.3718E-02  0.1033E-02  0.5644E-03
    -29.349  0.5804E+01  0.5553E+01  0.8819E+00  0.8434E+00
    -29.197  0.1088E+01  0.1236E+01  0.1047E+01  0.1031E+01
    -29.045  0.2077E+02  0.2033E+02  0.4200E+01  0.4117E+01
    -28.894  0.1244E+02  0.1278E+02  0.6088E+01  0.6057E+01
    -28.742  0.3811E+02  0.3794E+02  0.1187E+02  0.1182E+02
    -28.590  0.8430E+00  0.1218E+01  0.1200E+02  0.1200E+02
    -28.438  0.9379E-08  0.2596E-07  0.1200E+02  0.1200E+02
    -28.286  0.0000E+00  0.0000E+00  0.1200E+02  0.1200E+02
    -28.135  0.0000E+00  0.0000E+00  0.1200E+02  0.1200E+02
    -27.983  0.0000E+00  0.0000E+00  0.1200E+02  0.1200E+02
    -27.831  0.0000E+00  0.0000E+00  0.1200E+02  0.1200E+02
    -27.679  0.0000E+00  0.0000E+00  0.1200E+02  0.1200E+02
    -27.528  0.0000E+00  0.0000E+00  0.1200E+02  0.1200E+02
    -27.376  0.0000E+00  0.0000E+00  0.1200E+02  0.1200E+02
    -27.224  0.0000E+00  0.0000E+00  0.1200E+02  0.1200E+02
    -27.072  0.0000E+00  0.0000E+00  0.1200E+02  0.1200E+02
    -26.920  0.0000E+00  0.0000E+00  0.1200E+02  0.1200E+02
    -26.769  0.0000E+00  0.0000E+00  0.1200E+02  0.1200E+02
    -26.617  0.0000E+00  0.0000E+00  0.1200E+02  0.1200E+02
    -26.465  0.0000E+00  0.0000E+00  0.1200E+02  0.1200E+02
    -26.313  0.0000E+00  0.0000E+00  0.1200E+02  0.1200E+02
    -26.162  0.0000E+00  0.0000E+00  0.1200E+02  0.1200E+02
    -26.010  0.0000E+00  0.0000E+00  0.1200E+02  0.1200E+02
    -25.858  0.0000E+00  0.0000E+00  0.1200E+02  0.1200E+02
    -25.706  0.0000E+00  0.0000E+00  0.1200E+02  0.1200E+02
    -25.554  0.0000E+00  0.0000E+00  0.1200E+02  0.1200E+02
    -25.403  0.0000E+00  0.0000E+00  0.1200E+02  0.1200E+02
    -25.251  0.0000E+00  0.0000E+00  0.1200E+02  0.1200E+02
    -25.099  0.0000E+00  0.0000E+00  0.1200E+02  0.1200E+02
    -24.947  0.0000E+00  0.0000E+00  0.1200E+02  0.1200E+02
    -24.796  0.0000E+00  0.0000E+00  0.1200E+02  0.1200E+02
    -24.644  0.0000E+00  0.0000E+00  0.1200E+02  0.1200E+02
    -24.492  0.0000E+00  0.0000E+00  0.1200E+02  0.1200E+02
    -24.340  0.0000E+00  0.0000E+00  0.1200E+02  0.1200E+02
    -24.188  0.0000E+00  0.0000E+00  0.1200E+02  0.1200E+02
    -24.037  0.0000E+00  0.0000E+00  0.1200E+02  0.1200E+02
    -23.885  0.0000E+00  0.0000E+00  0.1200E+02  0.1200E+02
    -23.733  0.0000E+00  0.0000E+00  0.1200E+02  0.1200E+02
    -23.581  0.0000E+00  0.0000E+00  0.1200E+02  0.1200E+02
    -23.429  0.0000E+00  0.0000E+00  0.1200E+02  0.1200E+02
    -23.278  0.0000E+00  0.0000E+00  0.1200E+02  0.1200E+02
    -23.126  0.0000E+00  0.0000E+00  0.1200E+02  0.1200E+02
    -22.974  0.0000E+00  0.0000E+00  0.1200E+02  0.1200E+02
    -22.822  0.0000E+00  0.0000E+00  0.1200E+02  0.1200E+02
    -22.671  0.0000E+00  0.0000E+00  0.1200E+02  0.1200E+02
    -22.519  0.0000E+00  0.0000E+00  0.1200E+02  0.1200E+02
    -22.367  0.0000E+00  0.0000E+00  0.1200E+02  0.1200E+02
    -22.215  0.0000E+00  0.0000E+00  0.1200E+02  0.1200E+02
    -22.063  0.0000E+00  0.0000E+00  0.1200E+02  0.1200E+02
    -21.912  0.0000E+00  0.0000E+00  0.1200E+02  0.1200E+02
    -21.760  0.0000E+00  0.0000E+00  0.1200E+02  0.1200E+02
    -21.608  0.0000E+00  0.0000E+00  0.1200E+02  0.1200E+02
    -21.456  0.0000E+00  0.0000E+00  0.1200E+02  0.1200E+02
    -21.305  0.0000E+00  0.0000E+00  0.1200E+02  0.1200E+02
    -21.153  0.0000E+00  0.0000E+00  0.1200E+02  0.1200E+02
    -21.001  0.0000E+00  0.0000E+00  0.1200E+02  0.1200E+02
    -20.849  0.0000E+00  0.0000E+00  0.1200E+02  0.1200E+02
    -20.697  0.0000E+00  0.0000E+00  0.1200E+02  0.1200E+02
    -20.546  0.0000E+00  0.0000E+00  0.1200E+02  0.1200E+02
    -20.394  0.0000E+00  0.0000E+00  0.1200E+02  0.1200E+02
    -20.242  0.0000E+00  0.0000E+00  0.1200E+02  0.1200E+02
    -20.090  0.0000E+00  0.0000E+00  0.1200E+02  0.1200E+02
    -19.939  0.0000E+00  0.0000E+00  0.1200E+02  0.1200E+02
    -19.787  0.0000E+00  0.0000E+00  0.1200E+02  0.1200E+02
    -19.635  0.0000E+00  0.0000E+00  0.1200E+02  0.1200E+02
    -19.483  0.0000E+00  0.0000E+00  0.1200E+02  0.1200E+02
    -19.331  0.0000E+00  0.0000E+00  0.1200E+02  0.1200E+02
    -19.180  0.0000E+00  0.0000E+00  0.1200E+02  0.1200E+02
    -19.028  0.0000E+00  0.0000E+00  0.1200E+02  0.1200E+02
    -18.876  0.0000E+00  0.0000E+00  0.1200E+02  0.1200E+02
    -18.724  0.0000E+00  0.0000E+00  0.1200E+02  0.1200E+02
    -18.573  0.0000E+00  0.0000E+00  0.1200E+02  0.1200E+02
    -18.421  0.0000E+00  0.0000E+00  0.1200E+02  0.1200E+02
    -18.269  0.0000E+00  0.0000E+00  0.1200E+02  0.1200E+02
    -18.117  0.0000E+00  0.0000E+00  0.1200E+02  0.1200E+02
    -17.965  0.0000E+00  0.0000E+00  0.1200E+02  0.1200E+02
    -17.814  0.0000E+00  0.0000E+00  0.1200E+02  0.1200E+02
    -17.662  0.0000E+00  0.0000E+00  0.1200E+02  0.1200E+02
    -17.510  0.0000E+00  0.0000E+00  0.1200E+02  0.1200E+02
    -17.358  0.0000E+00  0.0000E+00  0.1200E+02  0.1200E+02
    -17.207  0.0000E+00  0.0000E+00  0.1200E+02  0.1200E+02
    -17.055  0.0000E+00  0.0000E+00  0.1200E+02  0.1200E+02
    -16.903  0.0000E+00  0.0000E+00  0.1200E+02  0.1200E+02
    -16.751  0.0000E+00  0.0000E+00  0.1200E+02  0.1200E+02
    -16.599  0.0000E+00  0.0000E+00  0.1200E+02  0.1200E+02
    -16.448  0.0000E+00  0.0000E+00  0.1200E+02  0.1200E+02
    -16.296  0.0000E+00  0.0000E+00  0.1200E+02  0.1200E+02
    -16.144  0.0000E+00  0.0000E+00  0.1200E+02  0.1200E+02
    -15.992  0.0000E+00  0.0000E+00  0.1200E+02  0.1200E+02
    -15.841  0.0000E+00  0.0000E+00  0.1200E+02  0.1200E+02
    -15.689  0.0000E+00  0.0000E+00  0.1200E+02  0.1200E+02
    -15.537  0.0000E+00  0.0000E+00  0.1200E+02  0.1200E+02
    -15.385  0.0000E+00  0.0000E+00  0.1200E+02  0.1200E+02
    -15.233  0.0000E+00  0.0000E+00  0.1200E+02  0.1200E+02
    -15.082  0.0000E+00  0.0000E+00  0.1200E+02  0.1200E+02
    -14.930  0.0000E+00  0.0000E+00  0.1200E+02  0.1200E+02
    -14.778  0.0000E+00  0.0000E+00  0.1200E+02  0.1200E+02
    -14.626  0.0000E+00  0.0000E+00  0.1200E+02  0.1200E+02
    -14.475  0.0000E+00  0.0000E+00  0.1200E+02  0.1200E+02
    -14.323  0.0000E+00  0.0000E+00  0.1200E+02  0.1200E+02
    -14.171  0.0000E+00  0.0000E+00  0.1200E+02  0.1200E+02
    -14.019  0.0000E+00  0.0000E+00  0.1200E+02  0.1200E+02
    -13.867  0.0000E+00  0.0000E+00  0.1200E+02  0.1200E+02
    -13.716  0.0000E+00  0.0000E+00  0.1200E+02  0.1200E+02
    -13.564  0.0000E+00  0.0000E+00  0.1200E+02  0.1200E+02
    -13.412  0.0000E+00  0.0000E+00  0.1200E+02  0.1200E+02
    -13.260  0.0000E+00  0.0000E+00  0.1200E+02  0.1200E+02
    -13.109  0.0000E+00  0.0000E+00  0.1200E+02  0.1200E+02
    -12.957  0.0000E+00  0.0000E+00  0.1200E+02  0.1200E+02
    -12.805  0.0000E+00  0.0000E+00  0.1200E+02  0.1200E+02
    -12.653  0.0000E+00  0.0000E+00  0.1200E+02  0.1200E+02
    -12.501  0.0000E+00  0.0000E+00  0.1200E+02  0.1200E+02
    -12.350  0.0000E+00  0.0000E+00  0.1200E+02  0.1200E+02
    -12.198  0.0000E+00  0.0000E+00  0.1200E+02  0.1200E+02
    -12.046  0.0000E+00  0.0000E+00  0.1200E+02  0.1200E+02
    -11.894  0.5522E-07  0.4959E-07  0.1200E+02  0.1200E+02
    -11.742  0.1206E+01  0.1164E+01  0.1218E+02  0.1218E+02
    -11.591  0.1851E+02  0.1855E+02  0.1499E+02  0.1499E+02
    -11.439  0.1141E+02  0.1136E+02  0.1672E+02  0.1672E+02
    -11.287  0.1824E+01  0.1871E+01  0.1700E+02  0.1700E+02
    -11.135  0.4893E-06  0.5351E-06  0.1700E+02  0.1700E+02
    -10.984  0.0000E+00  0.0000E+00  0.1700E+02  0.1700E+02
    -10.832  0.0000E+00  0.0000E+00  0.1700E+02  0.1700E+02
    -10.680  0.0000E+00  0.0000E+00  0.1700E+02  0.1700E+02
    -10.528  0.0000E+00  0.0000E+00  0.1700E+02  0.1700E+02
    -10.376  0.0000E+00  0.0000E+00  0.1700E+02  0.1700E+02
    -10.225  0.0000E+00  0.0000E+00  0.1700E+02  0.1700E+02
    -10.073  0.0000E+00  0.0000E+00  0.1700E+02  0.1700E+02
     -9.921  0.0000E+00  0.0000E+00  0.1700E+02  0.1700E+02
     -9.769  0.9172E-11  0.6128E-11  0.1700E+02  0.1700E+02
     -9.618  0.3248E-02  0.2778E-02  0.1700E+02  0.1700E+02
     -9.466  0.2361E+00  0.2359E+00  0.1704E+02  0.1704E+02
     -9.314  0.4624E-02  0.5349E-02  0.1704E+02  0.1704E+02
     -9.162  0.4808E+00  0.4466E+00  0.1711E+02  0.1710E+02
     -9.010  0.2350E+01  0.2353E+01  0.1747E+02  0.1746E+02
     -8.859  0.5849E+00  0.6164E+00  0.1756E+02  0.1756E+02
     -8.707  0.3025E-02  0.2534E-02  0.1756E+02  0.1756E+02
     -8.555  0.2595E+01  0.2565E+01  0.1795E+02  0.1795E+02
     -8.403  0.3303E+00  0.3607E+00  0.1800E+02  0.1800E+02
     -8.252  0.2176E+01  0.2114E+01  0.1833E+02  0.1832E+02
     -8.100  0.5037E+01  0.5068E+01  0.1909E+02  0.1909E+02
     -7.948  0.2037E+01  0.2066E+01  0.1940E+02  0.1940E+02
     -7.796  0.1649E+01  0.1610E+01  0.1965E+02  0.1965E+02
     -7.644  0.4714E+01  0.4739E+01  0.2037E+02  0.2037E+02
     -7.493  0.3234E+01  0.3153E+01  0.2086E+02  0.2085E+02
     -7.341  0.8933E+01  0.9027E+01  0.2222E+02  0.2222E+02
     -7.189  0.3326E+01  0.3226E+01  0.2272E+02  0.2271E+02
     -7.037  0.1491E+02  0.1501E+02  0.2498E+02  0.2498E+02
     -6.886  0.1004E+00  0.1067E+00  0.2500E+02  0.2500E+02
     -6.734  0.9060E-09  0.1068E-08  0.2500E+02  0.2500E+02
     -6.582  0.0000E+00  0.0000E+00  0.2500E+02  0.2500E+02
     -6.430  0.0000E+00  0.0000E+00  0.2500E+02  0.2500E+02
     -6.278  0.0000E+00  0.0000E+00  0.2500E+02  0.2500E+02
     -6.127  0.0000E+00  0.0000E+00  0.2500E+02  0.2500E+02
     -5.975  0.0000E+00  0.0000E+00  0.2500E+02  0.2500E+02
     -5.823  0.0000E+00  0.0000E+00  0.2500E+02  0.2500E+02
     -5.671  0.0000E+00  0.0000E+00  0.2500E+02  0.2500E+02
     -5.520  0.0000E+00  0.0000E+00  0.2500E+02  0.2500E+02
     -5.368  0.0000E+00  0.0000E+00  0.2500E+02  0.2500E+02
     -5.216  0.0000E+00  0.0000E+00  0.2500E+02  0.2500E+02
     -5.064  0.0000E+00  0.0000E+00  0.2500E+02  0.2500E+02
     -4.912  0.0000E+00  0.0000E+00  0.2500E+02  0.2500E+02
     -4.761  0.0000E+00  0.0000E+00  0.2500E+02  0.2500E+02
     -4.609  0.0000E+00  0.0000E+00  0.2500E+02  0.2500E+02
     -4.457  0.0000E+00  0.0000E+00  0.2500E+02  0.2500E+02
     -4.305  0.0000E+00  0.0000E+00  0.2500E+02  0.2500E+02
     -4.154  0.0000E+00  0.0000E+00  0.2500E+02  0.2500E+02
     -4.002  0.0000E+00  0.0000E+00  0.2500E+02  0.2500E+02
     -3.850  0.0000E+00  0.0000E+00  0.2500E+02  0.2500E+02
     -3.698  0.0000E+00  0.0000E+00  0.2500E+02  0.2500E+02
     -3.546  0.0000E+00  0.0000E+00  0.2500E+02  0.2500E+02
     -3.395  0.0000E+00  0.0000E+00  0.2500E+02  0.2500E+02
     -3.243  0.0000E+00  0.0000E+00  0.2500E+02  0.2500E+02
     -3.091  0.2344E-11  0.1166E-11  0.2500E+02  0.2500E+02
     -2.939  0.1899E-02  0.1432E-02  0.2500E+02  0.2500E+02
     -2.788  0.2347E+00  0.2333E+00  0.2504E+02  0.2504E+02
     -2.636  0.7433E-02  0.9302E-02  0.2504E+02  0.2504E+02
     -2.484  0.8491E-10  0.1601E-09  0.2504E+02  0.2504E+02
     -2.332  0.1872E-07  0.1129E-07  0.2504E+02  0.2504E+02
     -2.180  0.1803E+00  0.1539E+00  0.2506E+02  0.2506E+02
     -2.029  0.1769E+01  0.1794E+01  0.2533E+02  0.2533E+02
     -1.877  0.7194E+00  0.6709E+00  0.2544E+02  0.2543E+02
     -1.725  0.7476E+00  0.7971E+00  0.2556E+02  0.2556E+02
     -1.573  0.7287E-03  0.5845E-03  0.2556E+02  0.2556E+02
     -1.421  0.2312E+01  0.2258E+01  0.2591E+02  0.2590E+02
     -1.270  0.6156E+00  0.6701E+00  0.2600E+02  0.2600E+02
     -1.118  0.7538E-02  0.5222E-02  0.2600E+02  0.2600E+02
     -0.966  0.7070E+00  0.7029E+00  0.2611E+02  0.2611E+02
     -0.814  0.1756E-01  0.2394E-01  0.2611E+02  0.2611E+02
     -0.663  0.1486E-05  0.7491E-06  0.2611E+02  0.2611E+02
     -0.511  0.1241E+01  0.1038E+01  0.2630E+02  0.2627E+02
     -0.359  0.7064E+01  0.7164E+01  0.2737E+02  0.2736E+02
     -0.207  0.3679E+01  0.3612E+01  0.2793E+02  0.2790E+02
     -0.055  0.5075E+01  0.5120E+01  0.2870E+02  0.2868E+02
      0.096  0.2774E+01  0.2737E+01  0.2912E+02  0.2910E+02
      0.248  0.2859E+01  0.3021E+01  0.2956E+02  0.2956E+02
      0.400  0.3458E-01  0.2704E-01  0.2956E+02  0.2956E+02
      0.552  0.7531E+01  0.7221E+01  0.3070E+02  0.3066E+02
      0.703  0.2936E+01  0.3210E+01  0.3115E+02  0.3114E+02
      0.855  0.3736E+01  0.3656E+01  0.3172E+02  0.3170E+02
      1.007  0.5247E+01  0.5283E+01  0.3251E+02  0.3250E+02
      1.159  0.3572E+01  0.3569E+01  0.3305E+02  0.3304E+02
      1.311  0.2323E+01  0.2413E+01  0.3341E+02  0.3341E+02
      1.462  0.2832E+01  0.2629E+01  0.3384E+02  0.3381E+02
      1.614  0.6224E+01  0.6246E+01  0.3478E+02  0.3475E+02
      1.766  0.3632E+01  0.3814E+01  0.3533E+02  0.3533E+02
      1.918  0.1402E-02  0.1910E-02  0.3533E+02  0.3533E+02
      2.069  0.1939E+01  0.1803E+01  0.3563E+02  0.3561E+02
      2.221  0.4660E+01  0.4695E+01  0.3633E+02  0.3632E+02
      2.373  0.7328E+01  0.7154E+01  0.3745E+02  0.3741E+02
      2.525  0.1077E+02  0.1093E+02  0.3908E+02  0.3906E+02
      2.677  0.4616E+01  0.4477E+01  0.3978E+02  0.3974E+02
      2.828  0.8380E+01  0.8529E+01  0.4105E+02  0.4104E+02
      2.980  0.8040E+01  0.7900E+01  0.4227E+02  0.4224E+02
      3.132  0.5549E+01  0.5615E+01  0.4312E+02  0.4309E+02
      3.284  0.5073E+01  0.5125E+01  0.4389E+02  0.4387E+02
      3.435  0.3669E+01  0.3755E+01  0.4444E+02  0.4444E+02
      3.587  0.5232E+01  0.5156E+01  0.4524E+02  0.4522E+02
      3.739  0.8106E+01  0.8041E+01  0.4647E+02  0.4644E+02
      3.891  0.1556E+01  0.1732E+01  0.4670E+02  0.4670E+02
      4.043  0.1329E+01  0.1199E+01  0.4691E+02  0.4689E+02
      4.194  0.3719E+01  0.3814E+01  0.4747E+02  0.4746E+02
      4.346  0.6164E+01  0.5975E+01  0.4841E+02  0.4837E+02
      4.498  0.3054E+01  0.3256E+01  0.4887E+02  0.4887E+02
      4.650  0.3759E+01  0.3772E+01  0.4944E+02  0.4944E+02
      4.801  0.2926E+00  0.2010E+00  0.4948E+02  0.4947E+02
      4.953  0.3157E+01  0.3247E+01  0.4996E+02  0.4996E+02
      5.105  0.7152E+00  0.7223E+00  0.5007E+02  0.5007E+02
      5.257  0.1655E-01  0.1867E-01  0.5007E+02  0.5007E+02
      5.409  0.3083E+01  0.2657E+01  0.5054E+02  0.5048E+02
      5.560  0.2566E+01  0.2871E+01  0.5093E+02  0.5091E+02
      5.712  0.5745E+01  0.5378E+01  0.5180E+02  0.5173E+02
      5.864  0.1295E+01  0.1783E+01  0.5200E+02  0.5200E+02
      6.016  0.1063E+01  0.8968E+00  0.5216E+02  0.5214E+02
      6.167  0.4012E+00  0.5673E+00  0.5222E+02  0.5222E+02
      6.319  0.1711E+01  0.1331E+01  0.5248E+02  0.5242E+02
      6.471  0.3101E+01  0.3236E+01  0.5295E+02  0.5292E+02
      6.623  0.4381E+01  0.3908E+01  0.5362E+02  0.5351E+02
      6.775  0.6276E+01  0.6922E+01  0.5457E+02  0.5456E+02
      6.926  0.2814E+01  0.2861E+01  0.5500E+02  0.5499E+02
      7.078  0.3642E-01  0.5746E-01  0.5500E+02  0.5500E+02
      7.230  0.3177E+00  0.2940E+00  0.5505E+02  0.5505E+02
      7.382  0.1852E+01  0.1875E+01  0.5533E+02  0.5533E+02
      7.533  0.8553E-02  0.1380E-01  0.5533E+02  0.5533E+02
      7.685  0.1439E-07  0.4320E-08  0.5533E+02  0.5533E+02
      7.837  0.2191E+00  0.1473E+00  0.5537E+02  0.5536E+02
      7.989  0.2710E+01  0.2774E+01  0.5578E+02  0.5578E+02
      8.141  0.1399E+01  0.1384E+01  0.5599E+02  0.5599E+02
      8.292  0.6452E-01  0.8739E-01  0.5600E+02  0.5600E+02
      8.444  0.2891E+01  0.2560E+01  0.5644E+02  0.5639E+02
      8.596  0.8856E+01  0.8936E+01  0.5778E+02  0.5774E+02
      8.748  0.2371E+01  0.2450E+01  0.5814E+02  0.5812E+02
      8.899  0.4438E+01  0.4471E+01  0.5882E+02  0.5880E+02
      9.051  0.7803E+01  0.7650E+01  0.6000E+02  0.5996E+02
      9.203  0.6253E+01  0.6362E+01  0.6095E+02  0.6092E+02
      9.355  0.8967E+01  0.8380E+01  0.6231E+02  0.6219E+02
      9.507  0.7990E+01  0.8569E+01  0.6352E+02  0.6349E+02
      9.658  0.1938E+01  0.2118E+01  0.6382E+02  0.6382E+02
      9.810  0.1575E+01  0.1531E+01  0.6406E+02  0.6405E+02
      9.962  0.6486E+01  0.6143E+01  0.6504E+02  0.6498E+02
     10.114  0.6960E+01  0.7068E+01  0.6610E+02  0.6605E+02
     10.266  0.5805E+01  0.5936E+01  0.6698E+02  0.6695E+02
     10.417  0.1159E+01  0.1304E+01  0.6715E+02  0.6715E+02
     10.569  0.5057E+01  0.4781E+01  0.6792E+02  0.6788E+02
     10.721  0.5521E+01  0.5567E+01  0.6876E+02  0.6872E+02
     10.873  0.7373E+01  0.7326E+01  0.6988E+02  0.6984E+02
     11.024  0.1529E+01  0.1819E+01  0.7011E+02  0.7011E+02
     11.176  0.6129E-02  0.4513E-02  0.7011E+02  0.7011E+02
     11.328  0.5332E+00  0.3451E+00  0.7019E+02  0.7016E+02
     11.480  0.7131E+01  0.7216E+01  0.7128E+02  0.7126E+02
     11.632  0.4317E+00  0.5310E+00  0.7134E+02  0.7134E+02
     11.783  0.1405E+01  0.1409E+01  0.7155E+02  0.7155E+02
     11.935  0.2481E+00  0.1852E+00  0.7159E+02  0.7158E+02
     12.087  0.2685E+01  0.2746E+01  0.7200E+02  0.7200E+02
     12.239  0.5524E-02  0.9220E-02  0.7200E+02  0.7200E+02
     12.390  0.0000E+00  0.0000E+00  0.7200E+02  0.7200E+02
     12.542  0.0000E+00  0.0000E+00  0.7200E+02  0.7200E+02
     12.694  0.0000E+00  0.0000E+00  0.7200E+02  0.7200E+02
     12.846  0.0000E+00  0.0000E+00  0.7200E+02  0.7200E+02
     12.998  0.0000E+00  0.0000E+00  0.7200E+02  0.7200E+02
     13.149  0.0000E+00  0.0000E+00  0.7200E+02  0.7200E+02
     13.301  0.0000E+00  0.0000E+00  0.7200E+02  0.7200E+02
     13.453  0.0000E+00  0.0000E+00  0.7200E+02  0.7200E+02
     13.605  0.0000E+00  0.0000E+00  0.7200E+02  0.7200E+02
     13.756  0.0000E+00  0.0000E+00  0.7200E+02  0.7200E+02
     13.908  0.0000E+00  0.0000E+00  0.7200E+02  0.7200E+02
     14.060  0.0000E+00  0.0000E+00  0.7200E+02  0.7200E+02
