   13   13    1    2
  0.1919617E+02  0.7066825E-09  0.7066825E-09  0.7066825E-09  0.5000000E-16
  1.000000000000000E-004
  CAR 
 matgen                                  
    105      4     72
 
  0.3742002E-15  0.3742002E-15  0.3742002E-15  0.3703704E-01
    1      -29.404084    -29.397823   1.000000   1.000000
    2      -29.125889    -29.120146   1.000000   1.000000
    3      -29.125889    -29.120146   1.000000   1.000000
    4      -29.125889    -29.120146   1.000000   1.000000
    5      -29.006143    -29.000590   1.000000   1.000000
    6      -29.006143    -29.000590   1.000000   1.000000
    7      -28.817079    -28.811597   1.000000   1.000000
    8      -28.817079    -28.811597   1.000000   1.000000
    9      -28.817079    -28.811597   1.000000   1.000000
   10      -28.801606    -28.795752   1.000000   1.000000
   11      -28.801606    -28.795752   1.000000   1.000000
   12      -28.801606    -28.795752   1.000000   1.000000
   13      -11.686492    -11.685858   1.000000   1.000000
   14      -11.686492    -11.685858   1.000000   1.000000
   15      -11.686492    -11.685858   1.000000   1.000000
   16      -11.477317    -11.476747   1.000000   1.000000
   17      -11.477317    -11.476747   1.000000   1.000000
   18       -9.539198     -9.537066   1.000000   1.000000
   19       -7.738896     -7.737826   1.000000   1.000000
   20       -7.417120     -7.415991   1.000000   1.000000
   21       -7.417120     -7.415991   1.000000   1.000000
   22       -7.417120     -7.415991   1.000000   1.000000
   23       -7.184551     -7.183639   1.000000   1.000000
   24       -7.184551     -7.183639   1.000000   1.000000
   25       -7.184551     -7.183639   1.000000   1.000000
   26       -2.853769     -2.850193   1.000000   1.000000
   27       -1.036078     -1.031300   1.000000   1.000000
   28       -1.036078     -1.031300   1.000000   1.000000
   29       -1.036078     -1.031300   1.000000   1.000000
   30       -0.409273     -0.405671   1.000000   1.000000
   31        0.599911      0.603779   1.000000   1.000000
   32        0.599911      0.603779   1.000000   1.000000
   33        2.456375      2.459313   1.000000   1.000000
   34        2.456376      2.459315   1.000000   1.000000
   35        2.456376      2.459315   1.000000   1.000000
   36        2.679239      2.681634   1.000000   1.000000
   37        2.679239      2.681634   1.000000   1.000000
   38        2.679239      2.681634   1.000000   1.000000
   39        2.952780      2.956965   1.000000   1.000000
   40        2.952780      2.956965   1.000000   1.000000
   41        3.069373      3.072329   1.000000   1.000000
   42        3.069373      3.072329   1.000000   1.000000
   43        3.069373      3.072329   1.000000   1.000000
   44        3.400093      3.411146   1.000000   1.000000
   45        3.642860      3.645697   1.000000   1.000000
   46        3.642860      3.645697   1.000000   1.000000
   47        3.642860      3.645697   1.000000   1.000000
   48        4.858246      4.868107   1.000000   1.000000
   49        4.858246      4.868107   1.000000   1.000000
   50        5.033622      5.035853   1.000000   1.000000
   51        5.033622      5.035853   1.000000   1.000000
   52        5.033622      5.035853   1.000000   1.000000
   53        6.386828      6.398136   0.049510   0.024450
   54        6.386829      6.398136   0.049508   0.024450
   55        6.386829      6.398136   0.049508   0.024450
   56        7.129270      7.134525   0.000000   0.000000
   57        8.682593      8.689800   0.000000   0.000000
   58        8.682594      8.689801   0.000000   0.000000
   59        8.682594      8.689801   0.000000   0.000000
   60        8.946239      8.955183   0.000000   0.000000
   61        8.946239      8.955183   0.000000   0.000000
   62        8.946239      8.955183   0.000000   0.000000
   63        9.407342      9.417441   0.000000   0.000000
   64        9.407342      9.417441   0.000000   0.000000
   65        9.407342      9.417441   0.000000   0.000000
   66        9.848119      9.851980   0.000000   0.000000
   67        9.848119      9.851980   0.000000   0.000000
   68        9.856517      9.863033   0.000000   0.000000
   69        9.856517      9.863033   0.000000   0.000000
   70        9.856517      9.863033   0.000000   0.000000
   71       10.133896     10.140353   0.000000   0.000000
   72       11.245434     11.249989   0.000000   0.000000
 
  0.3333333E+00  0.3330669E-15  0.3330669E-15  0.2962963E+00
    1      -29.394415    -29.388154   1.000000   1.000000
    2      -29.123613    -29.117864   1.000000   1.000000
    3      -29.121168    -29.115423   1.000000   1.000000
    4      -29.121168    -29.115423   1.000000   1.000000
    5      -29.004981    -28.999428   1.000000   1.000000
    6      -29.004981    -28.999428   1.000000   1.000000
    7      -28.821856    -28.816365   1.000000   1.000000
    8      -28.821856    -28.816365   1.000000   1.000000
    9      -28.817078    -28.811597   1.000000   1.000000
   10      -28.815197    -28.809347   1.000000   1.000000
   11      -28.803095    -28.797250   1.000000   1.000000
   12      -28.803095    -28.797250   1.000000   1.000000
   13      -11.689958    -11.689321   1.000000   1.000000
   14      -11.686255    -11.685622   1.000000   1.000000
   15      -11.686255    -11.685622   1.000000   1.000000
   16      -11.477349    -11.476779   1.000000   1.000000
   17      -11.477349    -11.476779   1.000000   1.000000
   18       -9.137981     -9.135972   1.000000   1.000000
   19       -8.116935     -8.115471   1.000000   1.000000
   20       -7.774803     -7.773709   1.000000   1.000000
   21       -7.433788     -7.432632   1.000000   1.000000
   22       -7.433788     -7.432632   1.000000   1.000000
   23       -7.181494     -7.180584   1.000000   1.000000
   24       -7.181494     -7.180584   1.000000   1.000000
   25       -7.161364     -7.160327   1.000000   1.000000
   26       -2.133504     -2.130435   1.000000   1.000000
   27       -0.487668     -0.483002   1.000000   1.000000
   28       -0.487668     -0.483002   1.000000   1.000000
   29       -0.451894     -0.448043   1.000000   1.000000
   30        0.068668      0.072974   1.000000   1.000000
   31        0.541358      0.545247   1.000000   1.000000
   32        0.541358      0.545247   1.000000   1.000000
   33        0.934388      0.938367   1.000000   1.000000
   34        1.645283      1.648863   1.000000   1.000000
   35        1.645284      1.648863   1.000000   1.000000
   36        2.336710      2.341027   1.000000   1.000000
   37        2.468344      2.471457   1.000000   1.000000
   38        2.468344      2.471457   1.000000   1.000000
   39        2.755480      2.758472   1.000000   1.000000
   40        2.786004      2.789122   1.000000   1.000000
   41        2.786004      2.789122   1.000000   1.000000
   42        2.979408      2.983213   1.000000   1.000000
   43        3.144608      3.148065   1.000000   1.000000
   44        3.144609      3.148065   1.000000   1.000000
   45        3.723577      3.726485   1.000000   1.000000
   46        3.723577      3.726485   1.000000   1.000000
   47        4.073272      4.076079   1.000000   1.000000
   48        4.270202      4.279898   1.000000   1.000000
   49        4.564926      4.568041   1.000000   1.000000
   50        4.564926      4.568041   1.000000   1.000000
   51        5.383743      5.393763   1.000000   1.000000
   52        5.383743      5.393763   1.000000   1.000000
   53        6.462720      6.473568   0.000073   0.000020
   54        6.598815      6.610160   0.000000   0.000000
   55        6.598815      6.610160   0.000000   0.000000
   56        7.289030      7.294947   0.000000   0.000000
   57        8.480892      8.488561   0.000000   0.000000
   58        8.480893      8.488562   0.000000   0.000000
   59        8.839497      8.845561   0.000000   0.000000
   60        8.972532      8.979227   0.000000   0.000000
   61        8.972532      8.979228   0.000000   0.000000
   62        9.364618      9.373653   0.000000   0.000000
   63        9.364618      9.373653   0.000000   0.000000
   64        9.549370      9.558650   0.000000   0.000000
   65        9.895599      9.902796   0.000000   0.000000
   66       10.120849     10.125819   0.000000   0.000000
   67       10.120849     10.125819   0.000000   0.000000
   68       10.488972     10.494550   0.000000   0.000000
   69       10.563284     10.569097   0.000000   0.000000
   70       10.680530     10.686534   0.000000   0.000000
   71       10.680530     10.686534   0.000000   0.000000
   72       11.367522     11.389727   0.000000   0.000000
 
  0.3333333E+00  0.3333333E+00  0.3604684E-15  0.2222222E+00
    1      -29.391032    -29.384771   1.000000   1.000000
    2      -29.126214    -29.120459   1.000000   1.000000
    3      -29.117929    -29.112186   1.000000   1.000000
    4      -29.117929    -29.112186   1.000000   1.000000
    5      -29.007090    -29.001537   1.000000   1.000000
    6      -29.002239    -28.996686   1.000000   1.000000
    7      -28.821978    -28.816472   1.000000   1.000000
    8      -28.821978    -28.816472   1.000000   1.000000
    9      -28.821106    -28.815624   1.000000   1.000000
   10      -28.815367    -28.809522   1.000000   1.000000
   11      -28.805223    -28.799393   1.000000   1.000000
   12      -28.805223    -28.799393   1.000000   1.000000
   13      -11.690866    -11.690228   1.000000   1.000000
   14      -11.686042    -11.685409   1.000000   1.000000
   15      -11.686042    -11.685409   1.000000   1.000000
   16      -11.477546    -11.476976   1.000000   1.000000
   17      -11.477249    -11.476679   1.000000   1.000000
   18       -9.019483     -9.017531   1.000000   1.000000
   19       -8.024181     -8.022995   1.000000   1.000000
   20       -7.818487     -7.817026   1.000000   1.000000
   21       -7.488249     -7.487017   1.000000   1.000000
   22       -7.488249     -7.487017   1.000000   1.000000
   23       -7.429061     -7.427933   1.000000   1.000000
   24       -7.144224     -7.143371   1.000000   1.000000
   25       -7.144224     -7.143371   1.000000   1.000000
   26       -1.875891     -1.872891   1.000000   1.000000
   27       -0.465491     -0.461836   1.000000   1.000000
   28       -0.151408     -0.147476   1.000000   1.000000
   29       -0.078676     -0.074221   1.000000   1.000000
   30       -0.078676     -0.074221   1.000000   1.000000
   31        0.736890      0.741315   1.000000   1.000000
   32        0.900743      0.904806   1.000000   1.000000
   33        0.964416      0.968547   1.000000   1.000000
   34        1.475423      1.478529   1.000000   1.000000
   35        1.475423      1.478529   1.000000   1.000000
   36        2.217599      2.222562   1.000000   1.000000
   37        2.317668      2.321274   1.000000   1.000000
   38        2.317669      2.321275   1.000000   1.000000
   39        2.333848      2.337887   1.000000   1.000000
   40        2.522243      2.525970   1.000000   1.000000
   41        2.882530      2.885309   1.000000   1.000000
   42        2.915603      2.918937   1.000000   1.000000
   43        2.915603      2.918937   1.000000   1.000000
   44        3.082963      3.086804   1.000000   1.000000
   45        3.510069      3.513586   1.000000   1.000000
   46        3.604041      3.606632   1.000000   1.000000
   47        3.604042      3.606632   1.000000   1.000000
   48        4.353897      4.356977   1.000000   1.000000
   49        4.353897      4.356977   1.000000   1.000000
   50        4.376472      4.385771   1.000000   1.000000
   51        5.457583      5.467174   1.000000   1.000000
   52        5.702250      5.712724   1.000000   1.000000
   53        5.994445      6.005583   1.000000   1.000000
   54        6.838086      6.849646   0.000000   0.000000
   55        6.838086      6.849646   0.000000   0.000000
   56        8.080132      8.085466   0.000000   0.000000
   57        8.416191      8.422132   0.000000   0.000000
   58        8.416191      8.422133   0.000000   0.000000
   59        8.938557      8.944347   0.000000   0.000000
   60        9.005926      9.014586   0.000000   0.000000
   61        9.130367      9.140224   0.000000   0.000000
   62        9.130367      9.140224   0.000000   0.000000
   63        9.195968      9.201553   0.000000   0.000000
   64        9.735893      9.743031   0.000000   0.000000
   65       10.048481     10.056903   0.000000   0.000000
   66       10.048481     10.056903   0.000000   0.000000
   67       10.272351     10.277442   0.000000   0.000000
   68       10.758720     10.763681   0.000000   0.000000
   69       10.776294     10.782086   0.000000   0.000000
   70       10.776294     10.782086   0.000000   0.000000
   71       10.868343     10.872262   0.000000   0.000000
   72       11.696204     11.698086   0.000000   0.000000
 
 -0.3333333E+00  0.3333333E+00  0.4440892E-15  0.4444444E+00
    1      -29.387652    -29.381391   1.000000   1.000000
    2      -29.123657    -29.117897   1.000000   1.000000
    3      -29.117434    -29.111694   1.000000   1.000000
    4      -29.117048    -29.111303   1.000000   1.000000
    5      -29.005578    -29.000026   1.000000   1.000000
    6      -29.003164    -28.997612   1.000000   1.000000
    7      -28.823439    -28.817950   1.000000   1.000000
    8      -28.823093    -28.817599   1.000000   1.000000
    9      -28.820265    -28.814774   1.000000   1.000000
   10      -28.818188    -28.812354   1.000000   1.000000
   11      -28.809607    -28.803750   1.000000   1.000000
   12      -28.804922    -28.799089   1.000000   1.000000
   13      -11.691874    -11.691235   1.000000   1.000000
   14      -11.686004    -11.685372   1.000000   1.000000
   15      -11.685995    -11.685362   1.000000   1.000000
   16      -11.477499    -11.476929   1.000000   1.000000
   17      -11.477315    -11.476745   1.000000   1.000000
   18       -8.597976     -8.596119   1.000000   1.000000
   19       -8.266900     -8.265390   1.000000   1.000000
   20       -8.200786     -8.199358   1.000000   1.000000
   21       -7.693144     -7.691893   1.000000   1.000000
   22       -7.491223     -7.490004   1.000000   1.000000
   23       -7.151304     -7.150358   1.000000   1.000000
   24       -7.134384     -7.133524   1.000000   1.000000
   25       -7.104246     -7.103347   1.000000   1.000000
   26       -1.449979     -1.447753   1.000000   1.000000
   27       -0.336620     -0.332980   1.000000   1.000000
   28       -0.205556     -0.200892   1.000000   1.000000
   29        0.130324      0.134897   1.000000   1.000000
   30        0.480661      0.484379   1.000000   1.000000
   31        0.525269      0.530071   1.000000   1.000000
   32        0.824978      0.828745   1.000000   1.000000
   33        1.062512      1.067169   1.000000   1.000000
   34        1.187281      1.191062   1.000000   1.000000
   35        1.452345      1.455733   1.000000   1.000000
   36        1.578814      1.582586   1.000000   1.000000
   37        2.055797      2.059888   1.000000   1.000000
   38        2.149040      2.152400   1.000000   1.000000
   39        2.408245      2.410996   1.000000   1.000000
   40        2.409520      2.413961   1.000000   1.000000
   41        2.660064      2.663537   1.000000   1.000000
   42        2.680763      2.684328   1.000000   1.000000
   43        2.963463      2.967110   1.000000   1.000000
   44        3.257220      3.260552   1.000000   1.000000
   45        3.340290      3.344295   1.000000   1.000000
   46        3.526224      3.528914   1.000000   1.000000
   47        3.691329      3.695252   1.000000   1.000000
   48        4.058540      4.061596   1.000000   1.000000
   49        4.253568      4.255998   1.000000   1.000000
   50        4.851156      4.859702   1.000000   1.000000
   51        5.606342      5.616346   1.000000   1.000000
   52        5.687803      5.698720   1.000000   1.000000
   53        6.312357      6.323581   0.676066   0.555381
   54        6.658143      6.669730   0.000000   0.000000
   55        6.677099      6.688165   0.000000   0.000000
   56        7.887978      7.895092   0.000000   0.000000
   57        8.543114      8.549973   0.000000   0.000000
   58        8.572651      8.578424   0.000000   0.000000
   59        8.772338      8.778784   0.000000   0.000000
   60        9.078137      9.085501   0.000000   0.000000
   61        9.267757      9.275298   0.000000   0.000000
   62        9.317824      9.325104   0.000000   0.000000
   63        9.356674      9.363059   0.000000   0.000000
   64        9.452650      9.461205   0.000000   0.000000
   65        9.924819      9.930404   0.000000   0.000000
   66        9.976895      9.985267   0.000000   0.000000
   67       10.218769     10.223897   0.000000   0.000000
   68       10.550049     10.555101   0.000000   0.000000
   69       10.853337     10.860657   0.000000   0.000000
   70       11.406827     11.410710   0.000000   0.000000
   71       11.436475     11.441126   0.000000   0.000000
   72       11.984453     11.990275   0.000000   0.000000
