 vasp.5.4.1 24Jun15 (build Nov 23 2015 09:58:10) complex                        
  
 executed on             LinuxIFC date 2020.05.21  17:27:43
 running on   48 total cores
 distrk:  each k-point on   48 cores,    1 groups
 distr:  one band on NCORES_PER_BAND=  12 cores,    4 groups


--------------------------------------------------------------------------------------------------------


 INCAR:
 POTCAR:    PAW_PBE Ta_pv 07Sep2000               
 POTCAR:    PAW_PBE Ga_d 06Jul2010                
 POTCAR:    PAW_PBE Se 06Sep2000                  
 POTCAR:    PAW_PBE Ta_pv 07Sep2000               
   VRHFIN =Ta:  5p6s5d                                                          
   LEXCH  = PE                                                                  
   EATOM  =  1047.1984 eV,   76.9669 Ry                                         
                                                                                
   TITEL  = PAW_PBE Ta_pv 07Sep2000                                             
   LULTRA =        F    use ultrasoft PP ?                                      
   IUNSCR =        1    unscreen: 0-lin 1-nonlin 2-no                           
   RPACOR =    2.330    partial core radius                                     
   POMASS =  180.948; ZVAL   =   11.000    mass and valenz                      
   RCORE  =    2.500    outmost cutoff radius                                   
   RWIGS  =    2.840; RWIGS  =    1.503    wigner-seitz radius (au A)           
   ENMAX  =  223.667; ENMIN  =  167.750 eV                                      
   RCLOC  =    2.205    cutoff for local pot                                    
   LCOR   =        T    correct aug charges                                     
   LPAW   =        T    paw PP                                                  
   EAUG   =  377.421                                                            
   DEXC   =    0.000                                                            
   RMAX   =    2.551    core radius for proj-oper                               
   RAUG   =    1.300    factor for augmentation sphere                          
   RDEP   =    2.526    radius for radial grids                                 
   RDEPT  =    2.132    core radius for aug-charge                              
                                                                                
   Atomic configuration                                                         
   15 entries                                                                   
     n  l   j            E        occ.                                          
     1  0  0.50    -67341.2801   2.0000                                         
     2  0  0.50    -11566.9369   2.0000                                         
     2  1  1.50    -10134.1175   6.0000                                         
     3  0  0.50     -2648.5614   2.0000                                         
     3  1  1.50     -2222.6006   6.0000                                         
     3  2  2.50     -1726.3114  10.0000                                         
     4  0  0.50      -538.6957   2.0000                                         
     4  1  1.50      -399.0125   6.0000                                         
     4  2  2.50      -220.3955  10.0000                                         
     4  3  3.50       -23.0371  14.0000                                         
     5  0  0.50       -71.2900   2.0000                                         
     5  1  1.50       -37.8224   6.0000                                         
     5  2  2.50        -2.6455   4.0000                                         
     6  0  0.50        -4.9623   1.0000                                         
     5  3  2.50        -1.3606   0.0000                                         
   Description                                                                  
     l       E           TYP  RCUT    TYP  RCUT                                 
     1    -37.8224449     23  2.500                                             
     1      1.3605826     23  2.500                                             
     2     -2.6454718     23  2.500                                             
     2     -0.6258570     23  2.500                                             
     0     -4.9622674     23  2.500                                             
     0      4.7531427     23  2.500                                             
  local pseudopotential read in
  partial core-charges read in
  partial kinetic energy density read in
  atomic valenz-charges read in
  non local Contribution for L=           1  read in
    real space projection operators read in
  non local Contribution for L=           1  read in
    real space projection operators read in
  non local Contribution for L=           2  read in
    real space projection operators read in
  non local Contribution for L=           2  read in
    real space projection operators read in
  non local Contribution for L=           0  read in
    real space projection operators read in
  non local Contribution for L=           0  read in
    real space projection operators read in
    PAW grid and wavefunctions read in
 
   number of l-projection  operators is LMAX  =           6
   number of lm-projection operators is LMMAX =          18
 
 POTCAR:    PAW_PBE Ga_d 06Jul2010                
   VRHFIN =Ga: s2p1                                                             
   LEXCH  = PE                                                                  
   EATOM  =  2148.8298 eV,  157.9345 Ry                                         
                                                                                
   TITEL  = PAW_PBE Ga_d 06Jul2010                                              
   LULTRA =        F    use ultrasoft PP ?                                      
   IUNSCR =        1    unscreen: 0-lin 1-nonlin 2-no                           
   RPACOR =    1.700    partial core radius                                     
   POMASS =   69.723; ZVAL   =   13.000    mass and valenz                      
   RCORE  =    2.300    outmost cutoff radius                                   
   RWIGS  =    2.300; RWIGS  =    1.217    wigner-seitz radius (au A)           
   ENMAX  =  282.691; ENMIN  =  212.018 eV                                      
   ICORE  =        3    local potential                                         
   LCOR   =        T    correct aug charges                                     
   LPAW   =        T    paw PP                                                  
   EAUG   =  490.690                                                            
   DEXC   =    0.000                                                            
   RMAX   =    2.341    core radius for proj-oper                               
   RAUG   =    1.300    factor for augmentation sphere                          
   RDEP   =    2.413    radius for radial grids                                 
   RDEPT  =    1.856    core radius for aug-charge                              
                                                                                
   Atomic configuration                                                         
    9 entries                                                                   
     n  l   j            E        occ.                                          
     1  0  0.50    -10228.7831   2.0000                                         
     2  0  0.50     -1262.1604   2.0000                                         
     2  1  1.50     -1098.6333   6.0000                                         
     3  0  0.50      -148.1110   2.0000                                         
     3  1  1.50       -98.8436   6.0000                                         
     3  2  2.50       -19.1549  10.0000                                         
     4  0  0.50        -8.9483   2.0000                                         
     4  1  0.50        -2.5791   1.0000                                         
     4  3  2.50        -2.7416   0.0000                                         
   Description                                                                  
     l       E           TYP  RCUT    TYP  RCUT                                 
     2    -19.1549037     23  2.300                                             
     2     -5.4423304     23  2.300                                             
     0     -8.9483111     23  2.300                                             
     0     68.0291300     23  2.300                                             
     1     -2.5790802     23  2.100                                             
     1     81.6349560     23  2.300                                             
     3      6.8029130     23  2.300                                             
  local pseudopotential read in
  partial core-charges read in
  partial kinetic energy density read in
  atomic valenz-charges read in
  non local Contribution for L=           2  read in
    real space projection operators read in
  non local Contribution for L=           2  read in
    real space projection operators read in
  non local Contribution for L=           0  read in
    real space projection operators read in
  non local Contribution for L=           0  read in
    real space projection operators read in
  non local Contribution for L=           1  read in
    real space projection operators read in
  non local Contribution for L=           1  read in
    real space projection operators read in
    PAW grid and wavefunctions read in
 
   number of l-projection  operators is LMAX  =           6
   number of lm-projection operators is LMMAX =          18
 
 POTCAR:    PAW_PBE Se 06Sep2000                  
   VRHFIN =Se: s2p4                                                             
   LEXCH  = PE                                                                  
   EATOM  =   257.1286 eV,   18.8984 Ry                                         
                                                                                
   TITEL  = PAW_PBE Se 06Sep2000                                                
   LULTRA =        F    use ultrasoft PP ?                                      
   IUNSCR =        1    unscreen: 0-lin 1-nonlin 2-no                           
   RPACOR =    1.900    partial core radius                                     
   POMASS =   78.960; ZVAL   =    6.000    mass and valenz                      
   RCORE  =    2.100    outmost cutoff radius                                   
   RWIGS  =    2.200; RWIGS  =    1.164    wigner-seitz radius (au A)           
   ENMAX  =  211.555; ENMIN  =  158.666 eV                                      
   ICORE  =        3    local potential                                         
   LCOR   =        T    correct aug charges                                     
   LPAW   =        T    paw PP                                                  
   EAUG   =  446.842                                                            
   DEXC   =    0.000                                                            
   RMAX   =    2.147    core radius for proj-oper                               
   RAUG   =    1.300    factor for augmentation sphere                          
   RDEP   =    2.177    radius for radial grids                                 
   RDEPT  =    1.928    core radius for aug-charge                              
                                                                                
   Atomic configuration                                                         
   10 entries                                                                   
     n  l   j            E        occ.                                          
     1  0  0.50    -12503.4787   2.0000                                         
     2  0  0.50     -1606.9547   2.0000                                         
     2  1  1.50     -1413.3140   6.0000                                         
     3  0  0.50      -213.4885   2.0000                                         
     3  1  1.50      -152.9538   6.0000                                         
     3  2  2.50       -53.1221  10.0000                                         
     4  0  0.50       -17.2865   2.0000                                         
     4  1  0.50        -6.5110   4.0000                                         
     4  2  2.50        -6.8029   0.0000                                         
     4  3  2.50        -6.8029   0.0000                                         
   Description                                                                  
     l       E           TYP  RCUT    TYP  RCUT                                 
     0    -17.2865377     23  2.100                                             
     0    -15.3094411     23  2.100                                             
     1     -6.5110275     23  2.100                                             
     1     -0.0695192     23  2.100                                             
     2     -6.8029130     23  2.100                                             
     3     -1.3605826      7  2.100                                             
  local pseudopotential read in
  partial core-charges read in
  partial kinetic energy density read in
  atomic valenz-charges read in
  non local Contribution for L=           0  read in
    real space projection operators read in
  non local Contribution for L=           0  read in
    real space projection operators read in
  non local Contribution for L=           1  read in
    real space projection operators read in
  non local Contribution for L=           1  read in
    real space projection operators read in
  non local Contribution for L=           2  read in
    real space projection operators read in
    PAW grid and wavefunctions read in
 
   number of l-projection  operators is LMAX  =           5
   number of lm-projection operators is LMMAX =          13
 
  PAW_PBE Ta_pv 07Sep2000               :
 energy of atom  1       EATOM=-1047.1984
 kinetic energy error for atom=    0.0016 (will be added to EATOM!!)
  PAW_PBE Ga_d 06Jul2010                :
 energy of atom  2       EATOM=-2148.8298
 kinetic energy error for atom=    0.0026 (will be added to EATOM!!)
  PAW_PBE Se 06Sep2000                  :
 energy of atom  3       EATOM= -257.1286
 kinetic energy error for atom=    0.0007 (will be added to EATOM!!)
 
 
 POSCAR: Ta4 Ga1 Se8                             
  positions in direct lattice
  No initial velocities read in
 exchange correlation table for  LEXCH =        8
   RHO(1)=    0.500       N(1)  =     2000
   RHO(2)=  100.500       N(2)  =     4000
 


--------------------------------------------------------------------------------------------------------


 ion  position               nearest neighbor table
   1  0.604  0.604  0.189-   9 2.49   8 2.49   7 2.49  13 2.66  12 2.66  11 2.66   2 2.93   3 2.93
                             4 2.93
   2  0.604  0.189  0.604-   8 2.49   6 2.49   9 2.49  13 2.66  12 2.66  10 2.66   1 2.93   3 2.93
                             4 2.93
   3  0.189  0.604  0.604-   7 2.49   6 2.49   9 2.49  13 2.66  11 2.66  10 2.66   1 2.93   2 2.93
                             4 2.93
   4  0.604  0.604  0.604-   6 2.49   7 2.49   8 2.49  10 2.66  11 2.66  12 2.66   1 2.93   2 2.93
                             3 2.93
   5  0.000  0.000  0.000-  10 2.31  11 2.31  12 2.31  13 2.31
   6  0.360  0.360  0.920-   4 2.49   3 2.49   2 2.49
   7  0.360  0.920  0.360-   3 2.49   1 2.49   4 2.49
   8  0.920  0.360  0.360-   2 2.49   1 2.49   4 2.49
   9  0.360  0.360  0.360-   1 2.49   2 2.49   3 2.49
  10  0.867  0.867  0.400-   5 2.31   4 2.66   2 2.66   3 2.66
  11  0.867  0.400  0.867-   5 2.31   4 2.66   1 2.66   3 2.66
  12  0.400  0.867  0.867-   5 2.31   4 2.66   1 2.66   2 2.66
  13  0.867  0.867  0.867-   5 2.31   2 2.66   3 2.66   1 2.66
 
  LATTYP: Found a face centered cubic cell.
 ALAT       =     9.9940000000
  
  Lattice vectors:
  
 A1 = (   0.0000000000,   4.9970000000,   4.9970000000)
 A2 = (   4.9970000000,   0.0000000000,   4.9970000000)
 A3 = (   4.9970000000,   4.9970000000,   0.0000000000)


Analysis of symmetry for initial positions (statically):
=====================================================================
 Subroutine PRICEL returns:
 Original cell was already a primitive cell.
 

 Routine SETGRP: Setting up the symmetry group for a 
 face centered cubic supercell.


 Subroutine GETGRP returns: Found 24 space group operations
 (whereof 24 operations were pure point group operations)
 out of a pool of 48 trial point group operations.


The static configuration has the point symmetry T_d .


Analysis of symmetry for dynamics (positions and initial velocities):
=====================================================================
 Subroutine PRICEL returns:
 Original cell was already a primitive cell.
 

 Routine SETGRP: Setting up the symmetry group for a 
 face centered cubic supercell.


 Subroutine GETGRP returns: Found 24 space group operations
 (whereof 24 operations were pure point group operations)
 out of a pool of 48 trial point group operations.


The dynamic configuration has the point symmetry T_d .


Analysis of magnetic symmetry:
=====================================================================
 Subroutine PRICEL returns:
 Original cell was already a primitive cell.
 

 Subroutine MAGSYM returns: Found 24 space group operations
 (whereof 24 operations were pure point group operations)
 out of a pool of 24 trial space group operations
 (whereof 24 operations were pure point group operations)
 and found also     1 'primitive' translations


The magnetic configuration has the point symmetry T_d .
 
 
 KPOINTS: K-Mesh                                  

Automatic generation of k-mesh.
Space group operators:
 irot       det(A)        alpha          n_x          n_y          n_z        tau_x        tau_y        tau_z
    1     1.000000     0.000000     1.000000     0.000000     0.000000     0.000000     0.000000     0.000000
    2     1.000000   120.000000    -0.577350    -0.577350    -0.577350     0.000000     0.000000     0.000000
    3     1.000000   120.000000     0.577350     0.577350     0.577350     0.000000     0.000000     0.000000
    4    -1.000000    90.000000     0.000000     0.000000    -1.000000     0.000000     0.000000     0.000000
    5    -1.000000   180.000000     0.000000     0.707107     0.707107     0.000000     0.000000     0.000000
    6    -1.000000    90.000000     0.000000     1.000000     0.000000     0.000000     0.000000     0.000000
    7     1.000000   180.000000     0.000000     0.000000     1.000000     0.000000     0.000000     0.000000
    8     1.000000   120.000000    -0.577350     0.577350     0.577350     0.000000     0.000000     0.000000
    9     1.000000   120.000000    -0.577350     0.577350    -0.577350     0.000000     0.000000     0.000000
   10    -1.000000    90.000000     0.000000     0.000000     1.000000     0.000000     0.000000     0.000000
   11    -1.000000    90.000000    -1.000000     0.000000     0.000000     0.000000     0.000000     0.000000
   12    -1.000000   180.000000     0.707107     0.000000     0.707107     0.000000     0.000000     0.000000
   13     1.000000   120.000000     0.577350    -0.577350     0.577350     0.000000     0.000000     0.000000
   14     1.000000   120.000000    -0.577350    -0.577350     0.577350     0.000000     0.000000     0.000000
   15     1.000000   180.000000     1.000000     0.000000     0.000000     0.000000     0.000000     0.000000
   16    -1.000000    90.000000     0.000000    -1.000000     0.000000     0.000000     0.000000     0.000000
   17    -1.000000   180.000000     0.707107     0.707107     0.000000     0.000000     0.000000     0.000000
   18    -1.000000    90.000000     1.000000     0.000000     0.000000     0.000000     0.000000     0.000000
   19     1.000000   120.000000     0.577350    -0.577350    -0.577350     0.000000     0.000000     0.000000
   20     1.000000   180.000000     0.000000     1.000000     0.000000     0.000000     0.000000     0.000000
   21     1.000000   120.000000     0.577350     0.577350    -0.577350     0.000000     0.000000     0.000000
   22    -1.000000   180.000000     0.000000    -0.707107     0.707107     0.000000     0.000000     0.000000
   23    -1.000000   180.000000     0.707107    -0.707107     0.000000     0.000000     0.000000     0.000000
   24    -1.000000   180.000000     0.707107     0.000000    -0.707107     0.000000     0.000000     0.000000
 
 Subroutine IBZKPT returns following result:
 ===========================================
 
 Found      4 irreducible k-points:
 
 Following reciprocal coordinates:
            Coordinates               Weight
  0.000000  0.000000  0.000000      1.000000
  0.333333  0.000000  0.000000      8.000000
  0.333333  0.333333  0.000000      6.000000
 -0.333333  0.333333  0.000000     12.000000
 
 Following cartesian coordinates:
            Coordinates               Weight
  0.000000  0.000000  0.000000      1.000000
 -0.033353  0.033353  0.033353      8.000000
  0.000000  0.000000  0.066707      6.000000
  0.066707 -0.066707  0.000000     12.000000
 


--------------------------------------------------------------------------------------------------------




 Dimension of arrays:
   k-points           NKPTS =      4   k-points in BZ     NKDIM =      4   number of bands    NBANDS=     72
   number of dos      NEDOS =    301   number of ions     NIONS =     13
   non local maximal  LDIM  =      6   non local SUM 2l+1 LMDIM =     18
   total plane-waves  NPLWV = 157464
   max r-space proj   IRMAX =      1   max aug-charges    IRDMAX= 283758
   dimension x,y,z NGX =    54 NGY =   54 NGZ =   54
   dimension x,y,z NGXF=   108 NGYF=  108 NGZF=  108
   support grid    NGXF=   216 NGYF=  216 NGZF=  216
   ions per type =               4   1   8
 NGX,Y,Z   is equivalent  to a cutoff of  12.70, 12.70, 12.70 a.u.
 NGXF,Y,Z  is equivalent  to a cutoff of  25.41, 25.41, 25.41 a.u.


 I would recommend the setting:
   dimension x,y,z NGX =    53 NGY =   53 NGZ =   53
 SYSTEM =  matgen                                  
 POSCAR =  Ta4 Ga1 Se8                             

 Startparameter for this run:
   NWRITE =      2    write-flag & timer
   PREC   = accura    normal or accurate (medium, high low for compatibility)
   ISTART =      0    job   : 0-new  1-cont  2-samecut
   ICHARG =      2    charge: 1-file 2-atom 10-const
   ISPIN  =      2    spin polarized calculation?
   LNONCOLLINEAR =      F non collinear calculations
   LSORBIT =      F    spin-orbit coupling
   INIWAV =      1    electr: 0-lowe 1-rand  2-diag
   LASPH  =      F    aspherical Exc in radial PAW
   METAGGA=      F    non-selfconsistent MetaGGA calc.

 Electronic Relaxation 1
   ENCUT  =  520.0 eV  38.22 Ry    6.18 a.u.  13.14 13.14 13.14*2*pi/ulx,y,z
   ENINI  =  520.0     initial cutoff
   ENAUG  =  490.7 eV  augmentation charge cutoff
   NELM   =    140;   NELMIN=  5; NELMDL= -5     # of ELM steps 
   EDIFF  = 0.1E-03   stopping-criterion for ELM
   LREAL  =      F    real-space projection
   NLSPLINE    = F    spline interpolate recip. space projectors
   LCOMPAT=      F    compatible to vasp.4.4
   GGA_COMPAT  = T    GGA compatible to vasp.4.4-vasp.4.6
   LMAXPAW     = -100 max onsite density
   LMAXMIX     =    4 max onsite mixed and CHGCAR
   VOSKOWN=      0    Vosko Wilk Nusair interpolation
   ROPT   =    0.00000   0.00000   0.00000
 Ionic relaxation
   EDIFFG = -.1E-01   stopping-criterion for IOM
   NSW    =      0    number of steps for IOM
   NBLOCK =      1;   KBLOCK =      1    inner block; outer block 
   IBRION =     -1    ionic relax: 0-MD 1-quasi-New 2-CG
   NFREE  =      0    steps in history (QN), initial steepest desc. (CG)
   ISIF   =      0    stress and relaxation
   IWAVPR =     10    prediction:  0-non 1-charg 2-wave 3-comb
   ISYM   =      2    0-nonsym 1-usesym 2-fastsym
   LCORR  =      T    Harris-Foulkes like correction to forces

   POTIM  = 0.0500    time-step for ionic-motion
   TEIN   =    0.0    initial temperature
   TEBEG  =    0.0;   TEEND  =   0.0 temperature during run
   SMASS  =  -3.00    Nose mass-parameter (am)
   estimated Nose-frequenzy (Omega)   =  0.10E-29 period in steps =****** mass=  -0.114E-26a.u.
   SCALEE = 1.0000    scale energy and forces
   NPACO  =    256;   APACO  = 16.0  distance and # of slots for P.C.
   PSTRESS=    0.0 pullay stress

  Mass of Ions in am
   POMASS = 180.95 69.72 78.96
  Ionic Valenz
   ZVAL   =  11.00 13.00  6.00
  Atomic Wigner-Seitz radii
   RWIGS  =  -1.00 -1.00 -1.00
  virtual crystal weights 
   VCA    =   1.00  1.00  1.00
   NELECT =     105.0000    total number of electrons
   NUPDOWN=      -1.0000    fix difference up-down

 DOS related values:
   EMIN   =  10.00;   EMAX   =-10.00  energy-range for DOS
   EFERMI =   0.00
   ISMEAR =     0;   SIGMA  =   0.05  broadening in eV -4-tet -1-fermi 0-gaus

 Electronic relaxation 2 (details)
   IALGO  =     38    algorithm
   LDIAG  =      T    sub-space diagonalisation (order eigenvalues)
   LSUBROT=      F    optimize rotation matrix (better conditioning)
   TURBO    =      0    0=normal 1=particle mesh
   IRESTART =      0    0=no restart 2=restart with 2 vectors
   NREBOOT  =      0    no. of reboots
   NMIN     =      0    reboot dimension
   EREF     =   0.00    reference energy to select bands
   IMIX   =      4    mixing-type and parameters
     AMIX     =   0.10;   BMIX     =  1.20
     AMIX_MAG =   0.40;   BMIX_MAG =  1.20
     AMIN     =   0.10
     WC   =   100.;   INIMIX=   1;  MIXPRE=   1;  MAXMIX= -45

 Intra band minimization:
   WEIMIN = 0.0000     energy-eigenvalue tresh-hold
   EBREAK =  0.35E-06  absolut break condition
   DEPER  =   0.30     relativ break condition  

   TIME   =   0.40     timestep for ELM

  volume/ion in A,a.u.               =      19.20       129.54
  Fermi-wavevector in a.u.,A,eV,Ry     =   1.226738  2.318199 20.475228  1.504887
  Thomas-Fermi vector in A             =   2.361728
 
 Write flags
   LWAVE  =      F    write WAVECAR
   LCHARG =      F    write CHGCAR
   LVTOT  =      F    write LOCPOT, total local potential
   LVHAR  =      F    write LOCPOT, Hartree potential only
   LELF   =      F    write electronic localiz. function (ELF)
   LORBIT =      0    0 simple, 1 ext, 2 COOP (PROOUT)


 Dipole corrections
   LMONO  =      F    monopole corrections only (constant potential shift)
   LDIPOL =      F    correct potential (dipole corrections)
   IDIPOL =      0    1-x, 2-y, 3-z, 4-all directions 
   EPSILON=  1.0000000 bulk dielectric constant

 LDA+U is selected, type is set to LDAUTYPE =  2
   angular momentum for each species LDAUL =     2    2   -1
   U (eV)           for each species LDAUU =   2.0  3.9  0.0
   J (eV)           for each species LDAUJ =   0.0  0.0  0.0
 Exchange correlation treatment:
   GGA     =    --    GGA type
   LEXCH   =     8    internal setting for exchange type
   VOSKOWN=      0    Vosko Wilk Nusair interpolation
   LHFCALC =     F    Hartree Fock is set to
   LHFONE  =     F    Hartree Fock one center treatment
   AEXX    =    0.0000 exact exchange contribution

 Linear response parameters
   LEPSILON=     F    determine dielectric tensor
   LRPA    =     F    only Hartree local field effects (RPA)
   LNABLA  =     F    use nabla operator in PAW spheres
   LVEL    =     F    velocity operator in full k-point grid
   LINTERFAST=   F  fast interpolation
   KINTER  =     0    interpolate to denser k-point grid
   CSHIFT  =0.1000    complex shift for real part using Kramers Kronig
   OMEGAMAX=  -1.0    maximum frequency
   DEG_THRESHOLD= 0.2000000E-02 threshold for treating states as degnerate
   RTIME   =    0.100 relaxation time in fs

 Orbital magnetization related:
   ORBITALMAG=     F  switch on orbital magnetization
   LCHIMAG   =     F  perturbation theory with respect to B field
   DQ        =  0.001000  dq finite difference perturbation B field



--------------------------------------------------------------------------------------------------------


 Static calculation
 charge density and potential will be updated during run
 spin polarized calculation
 Variant of blocked Davidson
 Davidson routine will perform the subspace rotation
 perform sub-space diagonalisation
    after iterative eigenvector-optimisation
 modified Broyden-mixing scheme, WC =      100.0
 initial mixing is a Kerker type mixing with AMIX =  0.1000 and BMIX =      1.2000
 Hartree-type preconditioning will be used
 using additional bands           19
 reciprocal scheme for non local part
 use partial core corrections
 calculate Harris-corrections to forces 
   (improved forces if not selfconsistent)
 use gradient corrections 
 use of overlap-Matrix (Vanderbilt PP)
 Gauss-broadening in eV      SIGMA  =   0.05


--------------------------------------------------------------------------------------------------------


  energy-cutoff  :      520.00
  volume of cell :      249.55
      direct lattice vectors                 reciprocal lattice vectors
     0.000000000  4.997000000  4.997000000    -0.100060036  0.100060036  0.100060036
     4.997000000  0.000000000  4.997000000     0.100060036 -0.100060036  0.100060036
     4.997000000  4.997000000  0.000000000     0.100060036  0.100060036 -0.100060036

  length of vectors
     7.066825171  7.066825171  7.066825171     0.173309066  0.173309066  0.173309066


 
 k-points in units of 2pi/SCALE and weight: K-Mesh                                  
   0.00000000  0.00000000  0.00000000       0.037
  -0.03335335  0.03335335  0.03335335       0.296
   0.00000000  0.00000000  0.06670669       0.222
   0.06670669 -0.06670669  0.00000000       0.444
 
 k-points in reciprocal lattice and weights: K-Mesh                                  
   0.00000000  0.00000000  0.00000000       0.037
   0.33333333  0.00000000  0.00000000       0.296
   0.33333333  0.33333333  0.00000000       0.222
  -0.33333333  0.33333333  0.00000000       0.444
 
 position of ions in fractional coordinates (direct lattice) 
   0.60360000  0.60360000  0.18920000
   0.60360000  0.18920000  0.60360000
   0.18920000  0.60360000  0.60360000
   0.60360000  0.60360000  0.60360000
   0.00000000  0.00000000  0.00000000
   0.36000000  0.36000000  0.92000000
   0.36000000  0.92000000  0.36000000
   0.92000000  0.36000000  0.36000000
   0.36000000  0.36000000  0.36000000
   0.86660000  0.86660000  0.40020000
   0.86660000  0.40020000  0.86660000
   0.40020000  0.86660000  0.86660000
   0.86660000  0.86660000  0.86660000
 
 position of ions in cartesian coordinates  (Angst):
   3.96162160  3.96162160  6.03237840
   3.96162160  6.03237840  3.96162160
   6.03237840  3.96162160  3.96162160
   6.03237840  6.03237840  6.03237840
   0.00000000  0.00000000  0.00000000
   6.39616000  6.39616000  3.59784000
   6.39616000  3.59784000  6.39616000
   3.59784000  6.39616000  6.39616000
   3.59784000  3.59784000  3.59784000
   6.33019960  6.33019960  8.66080040
   6.33019960  8.66080040  6.33019960
   8.66080040  6.33019960  6.33019960
   8.66080040  8.66080040  8.66080040
 


--------------------------------------------------------------------------------------------------------


 k-point  1 :   0.0000 0.0000 0.0000  plane waves:    6735
 k-point  2 :   0.3333 0.0000 0.0000  plane waves:    6724
 k-point  3 :   0.3333 0.3333 0.0000  plane waves:    6698
 k-point  4 :  -0.3333 0.3333 0.0000  plane waves:    6745

 maximum and minimum number of plane-waves per node :       571      542

 maximum number of plane-waves:      6745
 maximum index in each direction: 
   IXMAX=   13   IYMAX=   13   IZMAX=   13
   IXMIN=  -13   IYMIN=  -13   IZMIN=  -13

 NGX is ok and might be reduce to  54
 NGY is ok and might be reduce to  54
 NGZ is ok and might be reduce to  54

 parallel 3D FFT for wavefunctions:
    minimum data exchange during FFTs selected (reduces bandwidth)
 parallel 3D FFT for charge:
    minimum data exchange during FFTs selected (reduces bandwidth)


 total amount of memory used by VASP on root node    41580. kBytes
========================================================================

   base      :      30000. kBytes
   nonl-proj :       1107. kBytes
   fftplans  :       4720. kBytes
   grid      :       4300. kBytes
   one-center:         62. kBytes
   wavefun   :       1391. kBytes
 
     INWAV:  cpu time    0.0000: real time    0.0003
 Broyden mixing: mesh for mixing (old mesh)
   NGX = 27   NGY = 27   NGZ = 27
  (NGX  =108   NGY  =108   NGZ  =108)
  gives a total of  19683 points

 initial charge density was supplied:
 charge density of overlapping atoms calculated
 number of electron     105.0000000 magnetization      13.0000000
 keeping initial charge density in first step


--------------------------------------------------------------------------------------------------------


 Maximum index for augmentation-charges         7106 (set IRDMAX)


--------------------------------------------------------------------------------------------------------


 First call to EWALD:  gamma=   0.282
 Maximum number of real-space cells 3x 3x 3
 Maximum number of reciprocal cells 3x 3x 3

 FEWALD executed in parallel
    FEWALD:  cpu time    0.0040: real time    0.0076


----------------------------------------- Iteration    1(   1)  ---------------------------------------


    POTLOK:  cpu time    0.0810: real time    0.0999
    SETDIJ:  cpu time    0.2090: real time    0.2191
     EDDAV:  cpu time    0.7949: real time    1.0254
       DOS:  cpu time    0.0030: real time    0.0121
    --------------------------------------------
      LOOP:  cpu time    1.0948: real time    1.3743

 eigenvalue-minimisations  :  1232
 total energy-change (2. order) : 0.1061137E+04  (-0.4897195E+04)
 number of electron     105.0000000 magnetization      13.0000000
 augmentation part      105.0000000 magnetization      13.0000000

 Free energy of the ion-electron system (eV)
  ---------------------------------------------------
  alpha Z        PSCENC =       590.10286658
  Ewald energy   TEWEN  =     -6473.88748535
  -Hartree energ DENC   =     -1817.87196087
  -exchange      EXHF   =         0.00000000
  -V(xc)+E(xc)   XCENC  =       138.98599804
  PAW double counting   =      6568.38814909    -6703.61005876
  entropy T*S    EENTRO =        -0.00272300
  eigenvalues    EBANDS =       364.39547592
  atomic energy  EATOM  =      8394.63709520
  Solvation  Ediel_sol  =         0.00000000
  ---------------------------------------------------
  free energy    TOTEN  =      1061.13735685 eV

  energy without entropy =     1061.14007985  energy(sigma->0) =     1061.13871835


--------------------------------------------------------------------------------------------------------




----------------------------------------- Iteration    1(   2)  ---------------------------------------


     EDDAV:  cpu time    0.7349: real time    0.7422
       DOS:  cpu time    0.0010: real time    0.0007
    --------------------------------------------
      LOOP:  cpu time    0.7389: real time    0.7558

 eigenvalue-minimisations  :  1288
 total energy-change (2. order) :-0.1011457E+04  (-0.9591075E+03)
 number of electron     105.0000000 magnetization      13.0000000
 augmentation part      105.0000000 magnetization      13.0000000

 Free energy of the ion-electron system (eV)
  ---------------------------------------------------
  alpha Z        PSCENC =       590.10286658
  Ewald energy   TEWEN  =     -6473.88748535
  -Hartree energ DENC   =     -1817.87196087
  -exchange      EXHF   =         0.00000000
  -V(xc)+E(xc)   XCENC  =       138.98599804
  PAW double counting   =      6568.38814909    -6703.61005876
  entropy T*S    EENTRO =        -0.00900329
  eigenvalues    EBANDS =      -647.05518278
  atomic energy  EATOM  =      8394.63709520
  Solvation  Ediel_sol  =         0.00000000
  ---------------------------------------------------
  free energy    TOTEN  =        49.68041787 eV

  energy without entropy =       49.68942115  energy(sigma->0) =       49.68491951


--------------------------------------------------------------------------------------------------------




----------------------------------------- Iteration    1(   3)  ---------------------------------------


     EDDAV:  cpu time    0.7599: real time    0.7641
       DOS:  cpu time    0.0000: real time    0.0007
    --------------------------------------------
      LOOP:  cpu time    0.7629: real time    0.7783

 eigenvalue-minimisations  :  1360
 total energy-change (2. order) :-0.1237330E+03  (-0.1188424E+03)
 number of electron     105.0000000 magnetization      13.0000000
 augmentation part      105.0000000 magnetization      13.0000000

 Free energy of the ion-electron system (eV)
  ---------------------------------------------------
  alpha Z        PSCENC =       590.10286658
  Ewald energy   TEWEN  =     -6473.88748535
  -Hartree energ DENC   =     -1817.87196087
  -exchange      EXHF   =         0.00000000
  -V(xc)+E(xc)   XCENC  =       138.98599804
  PAW double counting   =      6568.38814909    -6703.61005876
  entropy T*S    EENTRO =        -0.00629927
  eigenvalues    EBANDS =      -770.79088498
  atomic energy  EATOM  =      8394.63709520
  Solvation  Ediel_sol  =         0.00000000
  ---------------------------------------------------
  free energy    TOTEN  =       -74.05258032 eV

  energy without entropy =      -74.04628105  energy(sigma->0) =      -74.04943069


--------------------------------------------------------------------------------------------------------




----------------------------------------- Iteration    1(   4)  ---------------------------------------


     EDDAV:  cpu time    0.7959: real time    0.8009
       DOS:  cpu time    0.0010: real time    0.0007
    --------------------------------------------
      LOOP:  cpu time    0.7999: real time    0.8151

 eigenvalue-minimisations  :  1448
 total energy-change (2. order) :-0.6260644E+01  (-0.6176254E+01)
 number of electron     105.0000000 magnetization      13.0000000
 augmentation part      105.0000000 magnetization      13.0000000

 Free energy of the ion-electron system (eV)
  ---------------------------------------------------
  alpha Z        PSCENC =       590.10286658
  Ewald energy   TEWEN  =     -6473.88748535
  -Hartree energ DENC   =     -1817.87196087
  -exchange      EXHF   =         0.00000000
  -V(xc)+E(xc)   XCENC  =       138.98599804
  PAW double counting   =      6568.38814909    -6703.61005876
  entropy T*S    EENTRO =        -0.00374417
  eigenvalues    EBANDS =      -777.05408362
  atomic energy  EATOM  =      8394.63709520
  Solvation  Ediel_sol  =         0.00000000
  ---------------------------------------------------
  free energy    TOTEN  =       -80.31322385 eV

  energy without entropy =      -80.30947968  energy(sigma->0) =      -80.31135177


--------------------------------------------------------------------------------------------------------




----------------------------------------- Iteration    1(   5)  ---------------------------------------


     EDDAV:  cpu time    0.7879: real time    0.7925
       DOS:  cpu time    0.0010: real time    0.0007
    CHARGE:  cpu time    0.2990: real time    0.3163
    MIXING:  cpu time    0.0050: real time    0.0129
    --------------------------------------------
      LOOP:  cpu time    1.0938: real time    1.1394

 eigenvalue-minimisations  :  1432
 total energy-change (2. order) :-0.1448444E+00  (-0.1441022E+00)
 number of electron     105.0000000 magnetization      10.8323943
 augmentation part       12.1164585 magnetization       9.9128431

 Broyden mixing:
  rms(total) = 0.36777E+01    rms(broyden)= 0.36777E+01
  rms(prec ) = 0.40652E+01
  weight for this iteration     100.00

 Free energy of the ion-electron system (eV)
  ---------------------------------------------------
  alpha Z        PSCENC =       590.10286658
  Ewald energy   TEWEN  =     -6473.88748535
  -Hartree energ DENC   =     -1817.87196087
  -exchange      EXHF   =         0.00000000
  -V(xc)+E(xc)   XCENC  =       138.98599804
  PAW double counting   =      6568.38814909    -6703.61005876
  entropy T*S    EENTRO =        -0.00373471
  eigenvalues    EBANDS =      -777.19893746
  atomic energy  EATOM  =      8394.63709520
  Solvation  Ediel_sol  =         0.00000000
  ---------------------------------------------------
  free energy    TOTEN  =       -80.45806823 eV

  energy without entropy =      -80.45433352  energy(sigma->0) =      -80.45620088


--------------------------------------------------------------------------------------------------------




----------------------------------------- Iteration    1(   6)  ---------------------------------------


    POTLOK:  cpu time    0.0760: real time    0.0762
    SETDIJ:  cpu time    0.1900: real time    0.1906
     EDDAV:  cpu time    0.7919: real time    0.7964
       DOS:  cpu time    0.0000: real time    0.0007
    CHARGE:  cpu time    0.2950: real time    0.2956
    MIXING:  cpu time    0.0050: real time    0.0310
    --------------------------------------------
      LOOP:  cpu time    1.3598: real time    1.4042

 eigenvalue-minimisations  :  1448
 total energy-change (2. order) : 0.6779355E+00  (-0.7831725E-01)
 number of electron     105.0000000 magnetization       1.3584978
 augmentation part       12.3203986 magnetization       0.4547653

 Broyden mixing:
  rms(total) = 0.31219E+01    rms(broyden)= 0.31219E+01
  rms(prec ) = 0.34126E+01
  weight for this iteration     100.00

 eigenvalues of (default mixing * dielectric matrix)
  average eigenvalue GAMMA=   4.8119
  4.8119

 Free energy of the ion-electron system (eV)
  ---------------------------------------------------
  alpha Z        PSCENC =       590.10286658
  Ewald energy   TEWEN  =     -6473.88748535
  -Hartree energ DENC   =     -1806.40599597
  -exchange      EXHF   =         0.00000000
  -V(xc)+E(xc)   XCENC  =       138.38394946
  PAW double counting   =      7035.73032129    -7172.52209383
  entropy T*S    EENTRO =        -0.00358693
  eigenvalues    EBANDS =      -785.81520317
  atomic energy  EATOM  =      8394.63709520
  Solvation  Ediel_sol  =         0.00000000
  ---------------------------------------------------
  free energy    TOTEN  =       -79.78013273 eV

  energy without entropy =      -79.77654580  energy(sigma->0) =      -79.77833927


--------------------------------------------------------------------------------------------------------




----------------------------------------- Iteration    1(   7)  ---------------------------------------


    POTLOK:  cpu time    0.0760: real time    0.0764
    SETDIJ:  cpu time    0.1910: real time    0.1914
     EDDAV:  cpu time    0.7649: real time    0.7687
       DOS:  cpu time    0.0000: real time    0.0007
    CHARGE:  cpu time    0.2960: real time    0.2969
    MIXING:  cpu time    0.0020: real time    0.0083
    --------------------------------------------
      LOOP:  cpu time    1.3328: real time    1.3567

 eigenvalue-minimisations  :  1376
 total energy-change (2. order) : 0.1135804E+01  (-0.1274877E+01)
 number of electron     105.0000000 magnetization       0.2018735
 augmentation part       13.2179401 magnetization      -0.2394593

 Broyden mixing:
  rms(total) = 0.10099E+01    rms(broyden)= 0.10099E+01
  rms(prec ) = 0.11866E+01
  weight for this iteration     100.00

 eigenvalues of (default mixing * dielectric matrix)
  average eigenvalue GAMMA=   4.6545
  2.7181  6.5909

 Free energy of the ion-electron system (eV)
  ---------------------------------------------------
  alpha Z        PSCENC =       590.10286658
  Ewald energy   TEWEN  =     -6473.88748535
  -Hartree energ DENC   =     -1765.01512063
  -exchange      EXHF   =         0.00000000
  -V(xc)+E(xc)   XCENC  =       137.28111004
  PAW double counting   =      9666.72584898    -9810.27292833
  entropy T*S    EENTRO =        -0.00234854
  eigenvalues    EBANDS =      -818.21336682
  atomic energy  EATOM  =      8394.63709520
  Solvation  Ediel_sol  =         0.00000000
  ---------------------------------------------------
  free energy    TOTEN  =       -78.64432888 eV

  energy without entropy =      -78.64198034  energy(sigma->0) =      -78.64315461


--------------------------------------------------------------------------------------------------------




----------------------------------------- Iteration    1(   8)  ---------------------------------------


    POTLOK:  cpu time    0.0750: real time    0.0759
    SETDIJ:  cpu time    0.1900: real time    0.1911
     EDDAV:  cpu time    0.7639: real time    0.7648
       DOS:  cpu time    0.0010: real time    0.0007
    CHARGE:  cpu time    0.2960: real time    0.2971
    MIXING:  cpu time    0.0030: real time    0.0075
    --------------------------------------------
      LOOP:  cpu time    1.3318: real time    1.3530

 eigenvalue-minimisations  :  1376
 total energy-change (2. order) :-0.2600810E+00  (-0.2248778E+00)
 number of electron     105.0000000 magnetization      -0.7178427
 augmentation part       12.9999134 magnetization      -1.0931235

 Broyden mixing:
  rms(total) = 0.54433E+00    rms(broyden)= 0.54433E+00
  rms(prec ) = 0.64057E+00
  weight for this iteration     100.00

 eigenvalues of (default mixing * dielectric matrix)
  average eigenvalue GAMMA=   4.0099
  7.8850  1.1589  2.9858

 Free energy of the ion-electron system (eV)
  ---------------------------------------------------
  alpha Z        PSCENC =       590.10286658
  Ewald energy   TEWEN  =     -6473.88748535
  -Hartree energ DENC   =     -1776.92912405
  -exchange      EXHF   =         0.00000000
  -V(xc)+E(xc)   XCENC  =       137.46599010
  PAW double counting   =     10689.76001716   -10836.02996647
  entropy T*S    EENTRO =        -0.00547669
  eigenvalues    EBANDS =      -804.01832632
  atomic energy  EATOM  =      8394.63709520
  Solvation  Ediel_sol  =         0.00000000
  ---------------------------------------------------
  free energy    TOTEN  =       -78.90440984 eV

  energy without entropy =      -78.89893315  energy(sigma->0) =      -78.90167149


--------------------------------------------------------------------------------------------------------




----------------------------------------- Iteration    1(   9)  ---------------------------------------


    POTLOK:  cpu time    0.0760: real time    0.0764
    SETDIJ:  cpu time    0.1910: real time    0.1918
     EDDAV:  cpu time    0.7659: real time    0.7668
       DOS:  cpu time    0.0010: real time    0.0007
    CHARGE:  cpu time    0.2960: real time    0.2978
    MIXING:  cpu time    0.0020: real time    0.0020
    --------------------------------------------
      LOOP:  cpu time    1.3338: real time    1.3478

 eigenvalue-minimisations  :  1376
 total energy-change (2. order) :-0.1063466E-02  (-0.3527953E-01)
 number of electron     105.0000000 magnetization      -0.8942728
 augmentation part       13.0735483 magnetization      -1.1792171

 Broyden mixing:
  rms(total) = 0.36843E+00    rms(broyden)= 0.36843E+00
  rms(prec ) = 0.44785E+00
  weight for this iteration     100.00

 eigenvalues of (default mixing * dielectric matrix)
  average eigenvalue GAMMA=   3.6444
  8.7394  3.0422  0.9727  1.8233

 Free energy of the ion-electron system (eV)
  ---------------------------------------------------
  alpha Z        PSCENC =       590.10286658
  Ewald energy   TEWEN  =     -6473.88748535
  -Hartree energ DENC   =     -1771.47113758
  -exchange      EXHF   =         0.00000000
  -V(xc)+E(xc)   XCENC  =       137.46087909
  PAW double counting   =     11218.81028923   -11366.42230312
  entropy T*S    EENTRO =        -0.00849120
  eigenvalues    EBANDS =      -808.12718614
  atomic energy  EATOM  =      8394.63709520
  Solvation  Ediel_sol  =         0.00000000
  ---------------------------------------------------
  free energy    TOTEN  =       -78.90547330 eV

  energy without entropy =      -78.89698211  energy(sigma->0) =      -78.90122770


--------------------------------------------------------------------------------------------------------




----------------------------------------- Iteration    1(  10)  ---------------------------------------


    POTLOK:  cpu time    0.0750: real time    0.0762
    SETDIJ:  cpu time    0.1910: real time    0.1909
     EDDAV:  cpu time    0.7789: real time    0.7815
       DOS:  cpu time    0.0010: real time    0.0008
    CHARGE:  cpu time    0.2960: real time    0.2970
    MIXING:  cpu time    0.0020: real time    0.0021
    --------------------------------------------
      LOOP:  cpu time    1.3468: real time    1.3635

 eigenvalue-minimisations  :  1408
 total energy-change (2. order) : 0.2463247E-01  (-0.1752614E-01)
 number of electron     105.0000000 magnetization      -0.3406729
 augmentation part       13.0789974 magnetization      -0.3938559

 Broyden mixing:
  rms(total) = 0.16130E+00    rms(broyden)= 0.16130E+00
  rms(prec ) = 0.22564E+00
  weight for this iteration     100.00

 eigenvalues of (default mixing * dielectric matrix)
  average eigenvalue GAMMA=   3.3798
  8.7074  3.4097  2.6524  1.0648  1.0648

 Free energy of the ion-electron system (eV)
  ---------------------------------------------------
  alpha Z        PSCENC =       590.10286658
  Ewald energy   TEWEN  =     -6473.88748535
  -Hartree energ DENC   =     -1770.36818270
  -exchange      EXHF   =         0.00000000
  -V(xc)+E(xc)   XCENC  =       137.60227743
  PAW double counting   =     11909.53919902   -12059.00057092
  entropy T*S    EENTRO =        -0.01254720
  eigenvalues    EBANDS =      -807.49349290
  atomic energy  EATOM  =      8394.63709520
  Solvation  Ediel_sol  =         0.00000000
  ---------------------------------------------------
  free energy    TOTEN  =       -78.88084084 eV

  energy without entropy =      -78.86829364  energy(sigma->0) =      -78.87456724


--------------------------------------------------------------------------------------------------------




----------------------------------------- Iteration    1(  11)  ---------------------------------------


    POTLOK:  cpu time    0.0750: real time    0.0756
    SETDIJ:  cpu time    0.1910: real time    0.1915
     EDDAV:  cpu time    0.7659: real time    0.7677
       DOS:  cpu time    0.0010: real time    0.0008
    CHARGE:  cpu time    0.2960: real time    0.2972
    MIXING:  cpu time    0.0020: real time    0.0021
    --------------------------------------------
      LOOP:  cpu time    1.3338: real time    1.3530

 eigenvalue-minimisations  :  1376
 total energy-change (2. order) : 0.1956194E-01  (-0.1059994E-01)
 number of electron     105.0000000 magnetization      -0.0493137
 augmentation part       13.0323698 magnetization      -0.1054895

 Broyden mixing:
  rms(total) = 0.97735E-01    rms(broyden)= 0.97735E-01
  rms(prec ) = 0.12514E+00
  weight for this iteration     100.00

 eigenvalues of (default mixing * dielectric matrix)
  average eigenvalue GAMMA=   3.5359
  9.2336  4.5461  2.9646  2.4783  0.9964  0.9964

 Free energy of the ion-electron system (eV)
  ---------------------------------------------------
  alpha Z        PSCENC =       590.10286658
  Ewald energy   TEWEN  =     -6473.88748535
  -Hartree energ DENC   =     -1771.61635610
  -exchange      EXHF   =         0.00000000
  -V(xc)+E(xc)   XCENC  =       137.68800898
  PAW double counting   =     12011.21416806   -12160.91077166
  entropy T*S    EENTRO =        -0.01240288
  eigenvalues    EBANDS =      -806.07640173
  atomic energy  EATOM  =      8394.63709520
  Solvation  Ediel_sol  =         0.00000000
  ---------------------------------------------------
  free energy    TOTEN  =       -78.86127890 eV

  energy without entropy =      -78.84887602  energy(sigma->0) =      -78.85507746


--------------------------------------------------------------------------------------------------------




----------------------------------------- Iteration    1(  12)  ---------------------------------------


    POTLOK:  cpu time    0.0750: real time    0.0752
    SETDIJ:  cpu time    0.1910: real time    0.1914
     EDDAV:  cpu time    0.7779: real time    0.7792
       DOS:  cpu time    0.0010: real time    0.0008
    CHARGE:  cpu time    0.2970: real time    0.2975
    MIXING:  cpu time    0.0020: real time    0.0022
    --------------------------------------------
      LOOP:  cpu time    1.3468: real time    1.3619

 eigenvalue-minimisations  :  1416
 total energy-change (2. order) :-0.3268661E-02  (-0.4585245E-02)
 number of electron     105.0000000 magnetization      -0.0459066
 augmentation part       12.9834262 magnetization      -0.0866493

 Broyden mixing:
  rms(total) = 0.38072E-01    rms(broyden)= 0.38072E-01
  rms(prec ) = 0.52112E-01
  weight for this iteration     100.00

 eigenvalues of (default mixing * dielectric matrix)
  average eigenvalue GAMMA=   3.1983
  9.4617  4.2884  3.2069  2.4925  1.0339  1.0339  0.8711

 Free energy of the ion-electron system (eV)
  ---------------------------------------------------
  alpha Z        PSCENC =       590.10286658
  Ewald energy   TEWEN  =     -6473.88748535
  -Hartree energ DENC   =     -1773.45434657
  -exchange      EXHF   =         0.00000000
  -V(xc)+E(xc)   XCENC  =       137.77205583
  PAW double counting   =     12157.23650021   -12306.87596388
  entropy T*S    EENTRO =        -0.01253490
  eigenvalues    EBANDS =      -804.38273467
  atomic energy  EATOM  =      8394.63709520
  Solvation  Ediel_sol  =         0.00000000
  ---------------------------------------------------
  free energy    TOTEN  =       -78.86454756 eV

  energy without entropy =      -78.85201265  energy(sigma->0) =      -78.85828011


--------------------------------------------------------------------------------------------------------




----------------------------------------- Iteration    1(  13)  ---------------------------------------


    POTLOK:  cpu time    0.0750: real time    0.0758
    SETDIJ:  cpu time    0.1900: real time    0.1912
     EDDAV:  cpu time    0.7739: real time    0.7749
       DOS:  cpu time    0.0010: real time    0.0008
    CHARGE:  cpu time    0.2970: real time    0.2975
    MIXING:  cpu time    0.0020: real time    0.0024
    --------------------------------------------
      LOOP:  cpu time    1.3418: real time    1.3562

 eigenvalue-minimisations  :  1392
 total energy-change (2. order) :-0.9620054E-03  (-0.4811228E-03)
 number of electron     105.0000000 magnetization      -0.0141273
 augmentation part       12.9890261 magnetization      -0.0554702

 Broyden mixing:
  rms(total) = 0.27808E-01    rms(broyden)= 0.27807E-01
  rms(prec ) = 0.31877E-01
  weight for this iteration     100.00

 eigenvalues of (default mixing * dielectric matrix)
  average eigenvalue GAMMA=   3.1908
  9.6258  4.6264  3.7262  2.7262  1.5773  1.3394  0.9525  0.9525

 Free energy of the ion-electron system (eV)
  ---------------------------------------------------
  alpha Z        PSCENC =       590.10286658
  Ewald energy   TEWEN  =     -6473.88748535
  -Hartree energ DENC   =     -1773.00909925
  -exchange      EXHF   =         0.00000000
  -V(xc)+E(xc)   XCENC  =       137.77115975
  PAW double counting   =     12190.31808048   -12339.96315483
  entropy T*S    EENTRO =        -0.01251932
  eigenvalues    EBANDS =      -804.82245282
  atomic energy  EATOM  =      8394.63709520
  Solvation  Ediel_sol  =         0.00000000
  ---------------------------------------------------
  free energy    TOTEN  =       -78.86550956 eV

  energy without entropy =      -78.85299024  energy(sigma->0) =      -78.85924990


--------------------------------------------------------------------------------------------------------




----------------------------------------- Iteration    1(  14)  ---------------------------------------


    POTLOK:  cpu time    0.0750: real time    0.0759
    SETDIJ:  cpu time    0.1910: real time    0.1917
     EDDAV:  cpu time    0.7709: real time    0.7727
       DOS:  cpu time    0.0010: real time    0.0008
    CHARGE:  cpu time    0.2960: real time    0.2972
    MIXING:  cpu time    0.0030: real time    0.0025
    --------------------------------------------
      LOOP:  cpu time    1.3398: real time    1.3557

 eigenvalue-minimisations  :  1392
 total energy-change (2. order) :-0.1190781E-02  (-0.1797546E-03)
 number of electron     105.0000000 magnetization       0.0343422
 augmentation part       12.9922032 magnetization      -0.0034969

 Broyden mixing:
  rms(total) = 0.15317E-01    rms(broyden)= 0.15317E-01
  rms(prec ) = 0.18233E-01
  weight for this iteration     100.00

 eigenvalues of (default mixing * dielectric matrix)
  average eigenvalue GAMMA=   3.0861
  9.5792  5.0008  3.8912  2.6672  2.2987  0.9615  0.9615  1.2075  1.2075

 Free energy of the ion-electron system (eV)
  ---------------------------------------------------
  alpha Z        PSCENC =       590.10286658
  Ewald energy   TEWEN  =     -6473.88748535
  -Hartree energ DENC   =     -1772.94983100
  -exchange      EXHF   =         0.00000000
  -V(xc)+E(xc)   XCENC  =       137.77732895
  PAW double counting   =     12224.42752595   -12374.03152027
  entropy T*S    EENTRO =        -0.01254175
  eigenvalues    EBANDS =      -804.93013865
  atomic energy  EATOM  =      8394.63709520
  Solvation  Ediel_sol  =         0.00000000
  ---------------------------------------------------
  free energy    TOTEN  =       -78.86670034 eV

  energy without entropy =      -78.85415860  energy(sigma->0) =      -78.86042947


--------------------------------------------------------------------------------------------------------




----------------------------------------- Iteration    1(  15)  ---------------------------------------


    POTLOK:  cpu time    0.0740: real time    0.0750
    SETDIJ:  cpu time    0.1910: real time    0.1914
     EDDAV:  cpu time    0.7169: real time    0.7182
       DOS:  cpu time    0.0010: real time    0.0008
    CHARGE:  cpu time    0.2970: real time    0.2981
    MIXING:  cpu time    0.0030: real time    0.0026
    --------------------------------------------
      LOOP:  cpu time    1.2858: real time    1.3012

 eigenvalue-minimisations  :  1240
 total energy-change (2. order) :-0.2708748E-03  (-0.7418030E-04)
 number of electron     105.0000000 magnetization       0.0693546
 augmentation part       12.9958332 magnetization       0.0236107

 Broyden mixing:
  rms(total) = 0.10977E-01    rms(broyden)= 0.10977E-01
  rms(prec ) = 0.13545E-01
  weight for this iteration     100.00

 eigenvalues of (default mixing * dielectric matrix)
  average eigenvalue GAMMA=   3.2843
  9.7460  7.0466  4.3244  3.3420  2.6440  1.6410  1.2608  0.9912  0.9912  0.8561

 Free energy of the ion-electron system (eV)
  ---------------------------------------------------
  alpha Z        PSCENC =       590.10286658
  Ewald energy   TEWEN  =     -6473.88748535
  -Hartree energ DENC   =     -1772.84484776
  -exchange      EXHF   =         0.00000000
  -V(xc)+E(xc)   XCENC  =       137.77868246
  PAW double counting   =     12232.01867089   -12381.58289344
  entropy T*S    EENTRO =        -0.01249772
  eigenvalues    EBANDS =      -805.07656207
  atomic energy  EATOM  =      8394.63709520
  Solvation  Ediel_sol  =         0.00000000
  ---------------------------------------------------
  free energy    TOTEN  =       -78.86697122 eV

  energy without entropy =      -78.85447350  energy(sigma->0) =      -78.86072236


--------------------------------------------------------------------------------------------------------




----------------------------------------- Iteration    1(  16)  ---------------------------------------


    POTLOK:  cpu time    0.0750: real time    0.0747
    SETDIJ:  cpu time    0.1900: real time    0.1912
     EDDAV:  cpu time    0.6869: real time    0.6880
       DOS:  cpu time    0.0000: real time    0.0007
    --------------------------------------------
      LOOP:  cpu time    0.9549: real time    0.9682

 eigenvalue-minimisations  :  1152
 total energy-change (2. order) :-0.8449106E-05  (-0.3118658E-04)
 number of electron     105.0000000 magnetization       0.0693546
 augmentation part       12.9958332 magnetization       0.0236107

 Free energy of the ion-electron system (eV)
  ---------------------------------------------------
  alpha Z        PSCENC =       590.10286658
  Ewald energy   TEWEN  =     -6473.88748535
  -Hartree energ DENC   =     -1773.00420851
  -exchange      EXHF   =         0.00000000
  -V(xc)+E(xc)   XCENC  =       137.78821456
  PAW double counting   =     12256.41998078   -12405.97435110
  entropy T*S    EENTRO =        -0.01248751
  eigenvalues    EBANDS =      -804.93660432
  atomic energy  EATOM  =      8394.63709520
  Solvation  Ediel_sol  =         0.00000000
  ---------------------------------------------------
  free energy    TOTEN  =       -78.86697967 eV

  energy without entropy =      -78.85449216  energy(sigma->0) =      -78.86073592


--------------------------------------------------------------------------------------------------------




 average (electrostatic) potential at core
  the test charge radii are     1.1760  1.0314  1.0808
  (the norm of the test charge is              1.0000)
       1 -37.2866       2 -37.2866       3 -37.2866       4 -37.2866       5 -65.1392
       6 -52.5004       7 -52.5004       8 -52.5004       9 -52.5004      10 -52.7577
      11 -52.7577      12 -52.7577      13 -52.7577
 
 
 
 E-fermi :   6.3285     XC(G=0): -10.9713     alpha+bet :-11.6017


 spin component 1

 k-point     1 :       0.0000    0.0000    0.0000
  band No.  band energies     occupation 
      1     -29.4041      1.00000
      2     -29.1259      1.00000
      3     -29.1259      1.00000
      4     -29.1259      1.00000
      5     -29.0061      1.00000
      6     -29.0061      1.00000
      7     -28.8171      1.00000
      8     -28.8171      1.00000
      9     -28.8171      1.00000
     10     -28.8016      1.00000
     11     -28.8016      1.00000
     12     -28.8016      1.00000
     13     -11.6865      1.00000
     14     -11.6865      1.00000
     15     -11.6865      1.00000
     16     -11.4773      1.00000
     17     -11.4773      1.00000
     18      -9.5392      1.00000
     19      -7.7389      1.00000
     20      -7.4171      1.00000
     21      -7.4171      1.00000
     22      -7.4171      1.00000
     23      -7.1846      1.00000
     24      -7.1846      1.00000
     25      -7.1846      1.00000
     26      -2.8538      1.00000
     27      -1.0361      1.00000
     28      -1.0361      1.00000
     29      -1.0361      1.00000
     30      -0.4093      1.00000
     31       0.5999      1.00000
     32       0.5999      1.00000
     33       2.4564      1.00000
     34       2.4564      1.00000
     35       2.4564      1.00000
     36       2.6792      1.00000
     37       2.6792      1.00000
     38       2.6792      1.00000
     39       2.9528      1.00000
     40       2.9528      1.00000
     41       3.0694      1.00000
     42       3.0694      1.00000
     43       3.0694      1.00000
     44       3.4001      1.00000
     45       3.6429      1.00000
     46       3.6429      1.00000
     47       3.6429      1.00000
     48       4.8582      1.00000
     49       4.8582      1.00000
     50       5.0336      1.00000
     51       5.0336      1.00000
     52       5.0336      1.00000
     53       6.3868      0.04951
     54       6.3868      0.04951
     55       6.3868      0.04951
     56       7.1293      0.00000
     57       8.6826      0.00000
     58       8.6826      0.00000
     59       8.6826      0.00000
     60       8.9462      0.00000
     61       8.9462      0.00000
     62       8.9462      0.00000
     63       9.4073      0.00000
     64       9.4073      0.00000
     65       9.4073      0.00000
     66       9.8481      0.00000
     67       9.8481      0.00000
     68       9.8565      0.00000
     69       9.8565      0.00000
     70       9.8565      0.00000
     71      10.1339      0.00000
     72      11.2454      0.00000

 k-point     2 :       0.3333    0.0000    0.0000
  band No.  band energies     occupation 
      1     -29.3944      1.00000
      2     -29.1236      1.00000
      3     -29.1212      1.00000
      4     -29.1212      1.00000
      5     -29.0050      1.00000
      6     -29.0050      1.00000
      7     -28.8219      1.00000
      8     -28.8219      1.00000
      9     -28.8171      1.00000
     10     -28.8152      1.00000
     11     -28.8031      1.00000
     12     -28.8031      1.00000
     13     -11.6900      1.00000
     14     -11.6863      1.00000
     15     -11.6863      1.00000
     16     -11.4773      1.00000
     17     -11.4773      1.00000
     18      -9.1380      1.00000
     19      -8.1169      1.00000
     20      -7.7748      1.00000
     21      -7.4338      1.00000
     22      -7.4338      1.00000
     23      -7.1815      1.00000
     24      -7.1815      1.00000
     25      -7.1614      1.00000
     26      -2.1335      1.00000
     27      -0.4877      1.00000
     28      -0.4877      1.00000
     29      -0.4519      1.00000
     30       0.0687      1.00000
     31       0.5414      1.00000
     32       0.5414      1.00000
     33       0.9344      1.00000
     34       1.6453      1.00000
     35       1.6453      1.00000
     36       2.3367      1.00000
     37       2.4683      1.00000
     38       2.4683      1.00000
     39       2.7555      1.00000
     40       2.7860      1.00000
     41       2.7860      1.00000
     42       2.9794      1.00000
     43       3.1446      1.00000
     44       3.1446      1.00000
     45       3.7236      1.00000
     46       3.7236      1.00000
     47       4.0733      1.00000
     48       4.2702      1.00000
     49       4.5649      1.00000
     50       4.5649      1.00000
     51       5.3837      1.00000
     52       5.3837      1.00000
     53       6.4627      0.00007
     54       6.5988      0.00000
     55       6.5988      0.00000
     56       7.2890      0.00000
     57       8.4809      0.00000
     58       8.4809      0.00000
     59       8.8395      0.00000
     60       8.9725      0.00000
     61       8.9725      0.00000
     62       9.3646      0.00000
     63       9.3646      0.00000
     64       9.5494      0.00000
     65       9.8956      0.00000
     66      10.1208      0.00000
     67      10.1208      0.00000
     68      10.4890      0.00000
     69      10.5633      0.00000
     70      10.6805      0.00000
     71      10.6805      0.00000
     72      11.3675      0.00000

 k-point     3 :       0.3333    0.3333    0.0000
  band No.  band energies     occupation 
      1     -29.3910      1.00000
      2     -29.1262      1.00000
      3     -29.1179      1.00000
      4     -29.1179      1.00000
      5     -29.0071      1.00000
      6     -29.0022      1.00000
      7     -28.8220      1.00000
      8     -28.8220      1.00000
      9     -28.8211      1.00000
     10     -28.8154      1.00000
     11     -28.8052      1.00000
     12     -28.8052      1.00000
     13     -11.6909      1.00000
     14     -11.6860      1.00000
     15     -11.6860      1.00000
     16     -11.4775      1.00000
     17     -11.4772      1.00000
     18      -9.0195      1.00000
     19      -8.0242      1.00000
     20      -7.8185      1.00000
     21      -7.4882      1.00000
     22      -7.4882      1.00000
     23      -7.4291      1.00000
     24      -7.1442      1.00000
     25      -7.1442      1.00000
     26      -1.8759      1.00000
     27      -0.4655      1.00000
     28      -0.1514      1.00000
     29      -0.0787      1.00000
     30      -0.0787      1.00000
     31       0.7369      1.00000
     32       0.9007      1.00000
     33       0.9644      1.00000
     34       1.4754      1.00000
     35       1.4754      1.00000
     36       2.2176      1.00000
     37       2.3177      1.00000
     38       2.3177      1.00000
     39       2.3338      1.00000
     40       2.5222      1.00000
     41       2.8825      1.00000
     42       2.9156      1.00000
     43       2.9156      1.00000
     44       3.0830      1.00000
     45       3.5101      1.00000
     46       3.6040      1.00000
     47       3.6040      1.00000
     48       4.3539      1.00000
     49       4.3539      1.00000
     50       4.3765      1.00000
     51       5.4576      1.00000
     52       5.7023      1.00000
     53       5.9944      1.00000
     54       6.8381      0.00000
     55       6.8381      0.00000
     56       8.0801      0.00000
     57       8.4162      0.00000
     58       8.4162      0.00000
     59       8.9386      0.00000
     60       9.0059      0.00000
     61       9.1304      0.00000
     62       9.1304      0.00000
     63       9.1960      0.00000
     64       9.7359      0.00000
     65      10.0485      0.00000
     66      10.0485      0.00000
     67      10.2724      0.00000
     68      10.7587      0.00000
     69      10.7763      0.00000
     70      10.7763      0.00000
     71      10.8683      0.00000
     72      11.6962      0.00000

 k-point     4 :      -0.3333    0.3333    0.0000
  band No.  band energies     occupation 
      1     -29.3877      1.00000
      2     -29.1237      1.00000
      3     -29.1174      1.00000
      4     -29.1170      1.00000
      5     -29.0056      1.00000
      6     -29.0032      1.00000
      7     -28.8234      1.00000
      8     -28.8231      1.00000
      9     -28.8203      1.00000
     10     -28.8182      1.00000
     11     -28.8096      1.00000
     12     -28.8049      1.00000
     13     -11.6919      1.00000
     14     -11.6860      1.00000
     15     -11.6860      1.00000
     16     -11.4775      1.00000
     17     -11.4773      1.00000
     18      -8.5980      1.00000
     19      -8.2669      1.00000
     20      -8.2008      1.00000
     21      -7.6931      1.00000
     22      -7.4912      1.00000
     23      -7.1513      1.00000
     24      -7.1344      1.00000
     25      -7.1042      1.00000
     26      -1.4500      1.00000
     27      -0.3366      1.00000
     28      -0.2056      1.00000
     29       0.1303      1.00000
     30       0.4807      1.00000
     31       0.5253      1.00000
     32       0.8250      1.00000
     33       1.0625      1.00000
     34       1.1873      1.00000
     35       1.4523      1.00000
     36       1.5788      1.00000
     37       2.0558      1.00000
     38       2.1490      1.00000
     39       2.4082      1.00000
     40       2.4095      1.00000
     41       2.6601      1.00000
     42       2.6808      1.00000
     43       2.9635      1.00000
     44       3.2572      1.00000
     45       3.3403      1.00000
     46       3.5262      1.00000
     47       3.6913      1.00000
     48       4.0585      1.00000
     49       4.2536      1.00000
     50       4.8512      1.00000
     51       5.6063      1.00000
     52       5.6878      1.00000
     53       6.3124      0.67607
     54       6.6581      0.00000
     55       6.6771      0.00000
     56       7.8880      0.00000
     57       8.5431      0.00000
     58       8.5727      0.00000
     59       8.7723      0.00000
     60       9.0781      0.00000
     61       9.2678      0.00000
     62       9.3178      0.00000
     63       9.3567      0.00000
     64       9.4526      0.00000
     65       9.9248      0.00000
     66       9.9769      0.00000
     67      10.2188      0.00000
     68      10.5500      0.00000
     69      10.8533      0.00000
     70      11.4068      0.00000
     71      11.4365      0.00000
     72      11.9845      0.00000

 spin component 2

 k-point     1 :       0.0000    0.0000    0.0000
  band No.  band energies     occupation 
      1     -29.3978      1.00000
      2     -29.1201      1.00000
      3     -29.1201      1.00000
      4     -29.1201      1.00000
      5     -29.0006      1.00000
      6     -29.0006      1.00000
      7     -28.8116      1.00000
      8     -28.8116      1.00000
      9     -28.8116      1.00000
     10     -28.7958      1.00000
     11     -28.7958      1.00000
     12     -28.7958      1.00000
     13     -11.6859      1.00000
     14     -11.6859      1.00000
     15     -11.6859      1.00000
     16     -11.4767      1.00000
     17     -11.4767      1.00000
     18      -9.5371      1.00000
     19      -7.7378      1.00000
     20      -7.4160      1.00000
     21      -7.4160      1.00000
     22      -7.4160      1.00000
     23      -7.1836      1.00000
     24      -7.1836      1.00000
     25      -7.1836      1.00000
     26      -2.8502      1.00000
     27      -1.0313      1.00000
     28      -1.0313      1.00000
     29      -1.0313      1.00000
     30      -0.4057      1.00000
     31       0.6038      1.00000
     32       0.6038      1.00000
     33       2.4593      1.00000
     34       2.4593      1.00000
     35       2.4593      1.00000
     36       2.6816      1.00000
     37       2.6816      1.00000
     38       2.6816      1.00000
     39       2.9570      1.00000
     40       2.9570      1.00000
     41       3.0723      1.00000
     42       3.0723      1.00000
     43       3.0723      1.00000
     44       3.4111      1.00000
     45       3.6457      1.00000
     46       3.6457      1.00000
     47       3.6457      1.00000
     48       4.8681      1.00000
     49       4.8681      1.00000
     50       5.0359      1.00000
     51       5.0359      1.00000
     52       5.0359      1.00000
     53       6.3981      0.02445
     54       6.3981      0.02445
     55       6.3981      0.02445
     56       7.1345      0.00000
     57       8.6898      0.00000
     58       8.6898      0.00000
     59       8.6898      0.00000
     60       8.9552      0.00000
     61       8.9552      0.00000
     62       8.9552      0.00000
     63       9.4174      0.00000
     64       9.4174      0.00000
     65       9.4174      0.00000
     66       9.8520      0.00000
     67       9.8520      0.00000
     68       9.8630      0.00000
     69       9.8630      0.00000
     70       9.8630      0.00000
     71      10.1404      0.00000
     72      11.2500      0.00000

 k-point     2 :       0.3333    0.0000    0.0000
  band No.  band energies     occupation 
      1     -29.3882      1.00000
      2     -29.1179      1.00000
      3     -29.1154      1.00000
      4     -29.1154      1.00000
      5     -28.9994      1.00000
      6     -28.9994      1.00000
      7     -28.8164      1.00000
      8     -28.8164      1.00000
      9     -28.8116      1.00000
     10     -28.8093      1.00000
     11     -28.7973      1.00000
     12     -28.7973      1.00000
     13     -11.6893      1.00000
     14     -11.6856      1.00000
     15     -11.6856      1.00000
     16     -11.4768      1.00000
     17     -11.4768      1.00000
     18      -9.1360      1.00000
     19      -8.1155      1.00000
     20      -7.7737      1.00000
     21      -7.4326      1.00000
     22      -7.4326      1.00000
     23      -7.1806      1.00000
     24      -7.1806      1.00000
     25      -7.1603      1.00000
     26      -2.1304      1.00000
     27      -0.4830      1.00000
     28      -0.4830      1.00000
     29      -0.4480      1.00000
     30       0.0730      1.00000
     31       0.5452      1.00000
     32       0.5452      1.00000
     33       0.9384      1.00000
     34       1.6489      1.00000
     35       1.6489      1.00000
     36       2.3410      1.00000
     37       2.4715      1.00000
     38       2.4715      1.00000
     39       2.7585      1.00000
     40       2.7891      1.00000
     41       2.7891      1.00000
     42       2.9832      1.00000
     43       3.1481      1.00000
     44       3.1481      1.00000
     45       3.7265      1.00000
     46       3.7265      1.00000
     47       4.0761      1.00000
     48       4.2799      1.00000
     49       4.5680      1.00000
     50       4.5680      1.00000
     51       5.3938      1.00000
     52       5.3938      1.00000
     53       6.4736      0.00002
     54       6.6102      0.00000
     55       6.6102      0.00000
     56       7.2949      0.00000
     57       8.4886      0.00000
     58       8.4886      0.00000
     59       8.8456      0.00000
     60       8.9792      0.00000
     61       8.9792      0.00000
     62       9.3737      0.00000
     63       9.3737      0.00000
     64       9.5586      0.00000
     65       9.9028      0.00000
     66      10.1258      0.00000
     67      10.1258      0.00000
     68      10.4946      0.00000
     69      10.5691      0.00000
     70      10.6865      0.00000
     71      10.6865      0.00000
     72      11.3897      0.00000

 k-point     3 :       0.3333    0.3333    0.0000
  band No.  band energies     occupation 
      1     -29.3848      1.00000
      2     -29.1205      1.00000
      3     -29.1122      1.00000
      4     -29.1122      1.00000
      5     -29.0015      1.00000
      6     -28.9967      1.00000
      7     -28.8165      1.00000
      8     -28.8165      1.00000
      9     -28.8156      1.00000
     10     -28.8095      1.00000
     11     -28.7994      1.00000
     12     -28.7994      1.00000
     13     -11.6902      1.00000
     14     -11.6854      1.00000
     15     -11.6854      1.00000
     16     -11.4770      1.00000
     17     -11.4767      1.00000
     18      -9.0175      1.00000
     19      -8.0230      1.00000
     20      -7.8170      1.00000
     21      -7.4870      1.00000
     22      -7.4870      1.00000
     23      -7.4279      1.00000
     24      -7.1434      1.00000
     25      -7.1434      1.00000
     26      -1.8729      1.00000
     27      -0.4618      1.00000
     28      -0.1475      1.00000
     29      -0.0742      1.00000
     30      -0.0742      1.00000
     31       0.7413      1.00000
     32       0.9048      1.00000
     33       0.9685      1.00000
     34       1.4785      1.00000
     35       1.4785      1.00000
     36       2.2226      1.00000
     37       2.3213      1.00000
     38       2.3213      1.00000
     39       2.3379      1.00000
     40       2.5260      1.00000
     41       2.8853      1.00000
     42       2.9189      1.00000
     43       2.9189      1.00000
     44       3.0868      1.00000
     45       3.5136      1.00000
     46       3.6066      1.00000
     47       3.6066      1.00000
     48       4.3570      1.00000
     49       4.3570      1.00000
     50       4.3858      1.00000
     51       5.4672      1.00000
     52       5.7127      1.00000
     53       6.0056      1.00000
     54       6.8496      0.00000
     55       6.8496      0.00000
     56       8.0855      0.00000
     57       8.4221      0.00000
     58       8.4221      0.00000
     59       8.9443      0.00000
     60       9.0146      0.00000
     61       9.1402      0.00000
     62       9.1402      0.00000
     63       9.2016      0.00000
     64       9.7430      0.00000
     65      10.0569      0.00000
     66      10.0569      0.00000
     67      10.2774      0.00000
     68      10.7637      0.00000
     69      10.7821      0.00000
     70      10.7821      0.00000
     71      10.8723      0.00000
     72      11.6981      0.00000

 k-point     4 :      -0.3333    0.3333    0.0000
  band No.  band energies     occupation 
      1     -29.3814      1.00000
      2     -29.1179      1.00000
      3     -29.1117      1.00000
      4     -29.1113      1.00000
      5     -29.0000      1.00000
      6     -28.9976      1.00000
      7     -28.8180      1.00000
      8     -28.8176      1.00000
      9     -28.8148      1.00000
     10     -28.8124      1.00000
     11     -28.8037      1.00000
     12     -28.7991      1.00000
     13     -11.6912      1.00000
     14     -11.6854      1.00000
     15     -11.6854      1.00000
     16     -11.4769      1.00000
     17     -11.4767      1.00000
     18      -8.5961      1.00000
     19      -8.2654      1.00000
     20      -8.1994      1.00000
     21      -7.6919      1.00000
     22      -7.4900      1.00000
     23      -7.1504      1.00000
     24      -7.1335      1.00000
     25      -7.1033      1.00000
     26      -1.4478      1.00000
     27      -0.3330      1.00000
     28      -0.2009      1.00000
     29       0.1349      1.00000
     30       0.4844      1.00000
     31       0.5301      1.00000
     32       0.8287      1.00000
     33       1.0672      1.00000
     34       1.1911      1.00000
     35       1.4557      1.00000
     36       1.5826      1.00000
     37       2.0599      1.00000
     38       2.1524      1.00000
     39       2.4110      1.00000
     40       2.4140      1.00000
     41       2.6635      1.00000
     42       2.6843      1.00000
     43       2.9671      1.00000
     44       3.2606      1.00000
     45       3.3443      1.00000
     46       3.5289      1.00000
     47       3.6953      1.00000
     48       4.0616      1.00000
     49       4.2560      1.00000
     50       4.8597      1.00000
     51       5.6163      1.00000
     52       5.6987      1.00000
     53       6.3236      0.55538
     54       6.6697      0.00000
     55       6.6882      0.00000
     56       7.8951      0.00000
     57       8.5500      0.00000
     58       8.5784      0.00000
     59       8.7788      0.00000
     60       9.0855      0.00000
     61       9.2753      0.00000
     62       9.3251      0.00000
     63       9.3631      0.00000
     64       9.4612      0.00000
     65       9.9304      0.00000
     66       9.9853      0.00000
     67      10.2239      0.00000
     68      10.5551      0.00000
     69      10.8607      0.00000
     70      11.4107      0.00000
     71      11.4411      0.00000
     72      11.9903      0.00000


--------------------------------------------------------------------------------------------------------


 soft charge-density along one line, spin component           1
         0         1         2         3         4         5         6         7         8         9
 total charge-density along one line
 
 soft charge-density along one line, spin component           2
         0         1         2         3         4         5         6         7         8         9
 total charge-density along one line
 
 pseudopotential strength for first ion, spin component:           1
-31.961   0.013  -0.013   7.926  -0.010   0.010   0.010  -0.010
  0.013 -31.961   0.013  -0.010   7.926  -0.010  -0.000   0.010
 -0.013   0.013 -31.961   0.010  -0.010   7.926   0.010  -0.000
  7.926  -0.010   0.010   6.153   0.004  -0.004  -0.004   0.004
 -0.010   7.926  -0.010   0.004   6.153   0.004   0.000  -0.004
  0.010  -0.010   7.926  -0.004   0.004   6.153  -0.004   0.000
  0.010  -0.000   0.010  -0.004   0.000  -0.004  -6.445  -0.013
 -0.010   0.010  -0.000   0.004  -0.004   0.000  -0.013  -6.445
 -0.002  -0.003  -0.002  -0.000  -0.001  -0.000   0.005   0.003
 -0.000   0.010  -0.010   0.000  -0.004   0.004  -0.013   0.013
 -0.003   0.000   0.003  -0.001  -0.000   0.001  -0.000  -0.005
  0.012  -0.000   0.012  -0.005   0.000  -0.005  -7.862  -0.016
 -0.012   0.012  -0.000   0.005  -0.005   0.000  -0.016  -7.862
 -0.002  -0.004  -0.002  -0.001  -0.001  -0.001   0.007   0.003
 -0.000   0.012  -0.012   0.000  -0.005   0.005  -0.016   0.016
 -0.003   0.000   0.003  -0.001  -0.000   0.001  -0.000  -0.006
  0.004  -0.004   0.004  -0.004   0.004  -0.004   0.004  -0.004
  0.008  -0.008   0.008  -0.008   0.008  -0.008   0.007  -0.007
 pseudopotential strength for first ion, spin component:           2
-31.959   0.013  -0.013   7.925  -0.010   0.010   0.010  -0.010
  0.013 -31.959   0.013  -0.010   7.925  -0.010  -0.000   0.010
 -0.013   0.013 -31.959   0.010  -0.010   7.925   0.010  -0.000
  7.925  -0.010   0.010   6.153   0.004  -0.004  -0.004   0.004
 -0.010   7.925  -0.010   0.004   6.153   0.004   0.000  -0.004
  0.010  -0.010   7.925  -0.004   0.004   6.153  -0.004   0.000
  0.010  -0.000   0.010  -0.004   0.000  -0.004  -6.441  -0.013
 -0.010   0.010  -0.000   0.004  -0.004   0.000  -0.013  -6.441
 -0.002  -0.003  -0.002  -0.000  -0.001  -0.000   0.005   0.003
 -0.000   0.010  -0.010   0.000  -0.004   0.004  -0.013   0.013
 -0.003   0.000   0.003  -0.001  -0.000   0.001  -0.000  -0.005
  0.012  -0.000   0.012  -0.005   0.001  -0.005  -7.857  -0.016
 -0.012   0.012  -0.000   0.005  -0.005   0.001  -0.016  -7.857
 -0.002  -0.004  -0.002  -0.001  -0.001  -0.001   0.006   0.003
 -0.000   0.012  -0.012   0.001  -0.005   0.005  -0.016   0.016
 -0.003   0.000   0.003  -0.001  -0.000   0.001  -0.000  -0.006
  0.004  -0.004   0.004  -0.004   0.004  -0.004   0.004  -0.004
  0.008  -0.008   0.008  -0.008   0.008  -0.008   0.007  -0.007
 total augmentation occupancy for first ion, spin component:           1
  1.996  -0.000   0.000  -0.020  -0.000   0.000   0.014  -0.014  -0.020  -0.002  -0.034  -0.012   0.012   0.017   0.002   0.030
 -0.000   1.996  -0.000  -0.000  -0.020  -0.000  -0.002   0.014  -0.039   0.014   0.000   0.002  -0.012   0.035  -0.012  -0.000
  0.000  -0.000   1.996   0.000  -0.000  -0.020   0.014  -0.002  -0.020  -0.014   0.034  -0.012   0.002   0.017   0.012  -0.030
 -0.020  -0.000   0.000   0.174  -0.003   0.003   0.002  -0.002  -0.115  -0.022  -0.199   0.006  -0.006   0.069   0.015   0.120
 -0.000  -0.020  -0.000  -0.003   0.174  -0.003  -0.022   0.002  -0.229   0.002   0.000   0.015   0.006   0.138   0.006   0.000
  0.000  -0.000  -0.020   0.003  -0.003   0.174   0.002  -0.022  -0.115  -0.002   0.199   0.006   0.015   0.069  -0.006  -0.120
  0.014  -0.002   0.014   0.002  -0.022   0.002   4.710  -0.160   0.030  -0.160   0.000  -2.445   0.145  -0.033   0.145  -0.000
 -0.014   0.014  -0.002  -0.002   0.002  -0.022  -0.160   4.710   0.015   0.160  -0.026   0.145  -2.445  -0.017  -0.145   0.029
 -0.020  -0.039  -0.020  -0.115  -0.229  -0.115   0.030   0.015   8.311   0.015   0.000  -0.032  -0.016  -5.038  -0.016   0.000
 -0.002   0.014  -0.014  -0.022   0.002  -0.002  -0.160   0.160   0.015   4.710   0.026   0.145  -0.145  -0.017  -2.445  -0.029
 -0.034   0.000   0.034  -0.199   0.000   0.199   0.000  -0.026  -0.000   0.026   8.311   0.000   0.028   0.000  -0.028  -5.038
 -0.012   0.002  -0.012   0.006   0.015   0.006  -2.445   0.145  -0.032   0.145  -0.000   1.338  -0.102   0.028  -0.102   0.000
  0.012  -0.012   0.002  -0.006   0.006   0.015   0.145  -2.445  -0.016  -0.145   0.028  -0.102   1.338   0.014   0.102  -0.024
  0.017   0.035   0.017   0.069   0.138   0.069  -0.033  -0.017  -5.038  -0.017   0.000   0.028   0.014   3.104   0.014   0.000
  0.002  -0.012   0.012   0.015   0.006  -0.006   0.145  -0.145  -0.016  -2.445  -0.028  -0.102   0.102   0.014   1.338   0.024
  0.030  -0.000  -0.030   0.120   0.000  -0.120   0.000   0.029   0.000  -0.029  -5.038   0.000  -0.024   0.000   0.024   3.104
  0.029  -0.029   0.029   0.048  -0.048   0.048   0.018  -0.018   0.000  -0.018   0.000  -0.024   0.024  -0.000   0.024   0.000
 -0.017   0.017  -0.017  -0.004   0.004  -0.004   0.022  -0.022  -0.000  -0.022  -0.000  -0.009   0.009  -0.000   0.009   0.000
 total augmentation occupancy for first ion, spin component:           2
  0.000  -0.000   0.000   0.000  -0.000   0.000   0.000  -0.000  -0.000   0.000  -0.000  -0.000   0.000   0.000  -0.000   0.000
 -0.000   0.000  -0.000  -0.000   0.000  -0.000   0.000   0.000  -0.000   0.000  -0.000  -0.000  -0.000   0.000  -0.000  -0.000
  0.000  -0.000   0.000   0.000  -0.000   0.000   0.000   0.000  -0.000  -0.000   0.000  -0.000  -0.000   0.000   0.000  -0.000
  0.000  -0.000   0.000   0.000  -0.000   0.000   0.000  -0.000  -0.000   0.000  -0.000  -0.000   0.000   0.000  -0.000   0.000
 -0.000   0.000  -0.000  -0.000   0.000  -0.000   0.000   0.000  -0.000   0.000   0.000  -0.000  -0.000   0.000  -0.000   0.000
  0.000  -0.000   0.000   0.000  -0.000   0.000   0.000   0.000  -0.000  -0.000   0.000  -0.000  -0.000   0.000   0.000  -0.000
  0.000   0.000   0.000   0.000   0.000   0.000   0.009  -0.000  -0.001  -0.000   0.000  -0.002  -0.000   0.000  -0.000   0.000
 -0.000   0.000   0.000  -0.000   0.000   0.000  -0.000   0.009  -0.000   0.000   0.000  -0.000  -0.002   0.000   0.000  -0.000
 -0.000  -0.000  -0.000  -0.000  -0.000  -0.000  -0.001  -0.000   0.003  -0.000   0.000   0.000   0.000  -0.001   0.000   0.000
  0.000   0.000  -0.000   0.000   0.000  -0.000  -0.000   0.000  -0.000   0.009  -0.000  -0.000   0.000   0.000  -0.002   0.000
 -0.000  -0.000   0.000  -0.000   0.000   0.000   0.000   0.000   0.000  -0.000   0.003   0.000  -0.000   0.000   0.000  -0.001
 -0.000  -0.000  -0.000  -0.000  -0.000  -0.000  -0.002  -0.000   0.000  -0.000   0.000   0.001  -0.000  -0.000  -0.000   0.000
  0.000  -0.000  -0.000   0.000  -0.000  -0.000  -0.000  -0.002   0.000   0.000  -0.000  -0.000   0.001  -0.000   0.000   0.000
  0.000   0.000   0.000   0.000   0.000   0.000   0.000   0.000  -0.001   0.000   0.000  -0.000  -0.000   0.001  -0.000   0.000
 -0.000  -0.000   0.000  -0.000  -0.000   0.000  -0.000   0.000   0.000  -0.002   0.000  -0.000   0.000  -0.000   0.001  -0.000
  0.000  -0.000  -0.000   0.000   0.000  -0.000   0.000  -0.000   0.000   0.000  -0.001   0.000   0.000   0.000  -0.000   0.001
  0.000  -0.000   0.000  -0.000   0.000  -0.000  -0.000   0.000  -0.000   0.000   0.000  -0.000   0.000   0.000   0.000   0.000
 -0.000   0.000  -0.000   0.000  -0.000   0.000   0.000  -0.000   0.000  -0.000   0.000  -0.000   0.000  -0.000   0.000  -0.000


------------------------ aborting loop because EDIFF is reached ----------------------------------------


    CHARGE:  cpu time    0.2960: real time    0.2974
    FORLOC:  cpu time    0.0050: real time    0.0081
    FORNL :  cpu time    1.2768: real time    1.2850
    FORCOR:  cpu time    0.2650: real time    0.2674
    FORHAR:  cpu time    0.0130: real time    0.0146
    MIXING:  cpu time    0.0020: real time    0.0037
    OFIELD:  cpu time    0.0010: real time    0.0033

 VOLUME and BASIS-vectors are now :
 -----------------------------------------------------------------------------
  energy-cutoff  :      520.00
  volume of cell :      249.55
      direct lattice vectors                 reciprocal lattice vectors
     0.000000000  4.997000000  4.997000000    -0.100060036  0.100060036  0.100060036
     4.997000000  0.000000000  4.997000000     0.100060036 -0.100060036  0.100060036
     4.997000000  4.997000000  0.000000000     0.100060036  0.100060036 -0.100060036

  length of vectors
     7.066825171  7.066825171  7.066825171     0.173309066  0.173309066  0.173309066


 FORCES acting on ions
    electron-ion (+dipol)            ewald-force                    non-local-force                 convergence-correction
 -----------------------------------------------------------------------------------------------
   0.101E+03 0.101E+03 -.101E+03   -.100E+03 -.100E+03 0.100E+03   -.896E+00 -.896E+00 0.896E+00   -.263E-01 -.263E-01 0.263E-01
   0.101E+03 -.101E+03 0.101E+03   -.100E+03 0.100E+03 -.100E+03   -.896E+00 0.896E+00 -.896E+00   -.263E-01 0.263E-01 -.263E-01
   -.101E+03 0.101E+03 0.101E+03   0.100E+03 -.100E+03 -.100E+03   0.896E+00 -.896E+00 -.896E+00   0.263E-01 -.263E-01 -.263E-01
   -.101E+03 -.101E+03 -.101E+03   0.100E+03 0.100E+03 0.100E+03   0.896E+00 0.896E+00 0.896E+00   0.263E-01 0.263E-01 0.263E-01
   -.530E-06 -.530E-06 -.531E-06   0.280E-11 0.271E-11 0.276E-11   -.125E-15 -.694E-16 -.703E-16   -.229E-07 -.229E-07 -.229E-07
   -.118E+03 -.118E+03 0.118E+03   0.118E+03 0.118E+03 -.118E+03   0.201E+00 0.201E+00 -.201E+00   0.320E-01 0.320E-01 -.320E-01
   -.118E+03 0.118E+03 -.118E+03   0.118E+03 -.118E+03 0.118E+03   0.201E+00 -.201E+00 0.201E+00   0.320E-01 -.320E-01 0.320E-01
   0.118E+03 -.118E+03 -.118E+03   -.118E+03 0.118E+03 0.118E+03   -.201E+00 0.201E+00 0.201E+00   -.320E-01 0.320E-01 0.320E-01
   0.118E+03 0.118E+03 0.118E+03   -.118E+03 -.118E+03 -.118E+03   -.201E+00 -.201E+00 -.201E+00   -.320E-01 -.320E-01 -.320E-01
   -.772E+01 -.772E+01 0.772E+01   0.846E+01 0.846E+01 -.846E+01   -.669E+00 -.669E+00 0.669E+00   -.131E-01 -.131E-01 0.131E-01
   -.772E+01 0.772E+01 -.772E+01   0.846E+01 -.846E+01 0.846E+01   -.669E+00 0.669E+00 -.669E+00   -.131E-01 0.131E-01 -.131E-01
   0.772E+01 -.772E+01 -.772E+01   -.846E+01 0.846E+01 0.846E+01   0.669E+00 -.669E+00 -.669E+00   0.131E-01 -.131E-01 -.131E-01
   0.772E+01 0.772E+01 0.772E+01   -.846E+01 -.846E+01 -.846E+01   0.669E+00 0.669E+00 0.669E+00   0.131E-01 0.131E-01 0.131E-01
 -----------------------------------------------------------------------------------------------
   -.373E-06 -.373E-06 -.391E-06   -.657E-13 -.142E-13 0.444E-13   -.777E-15 -.333E-15 -.666E-15   -.294E-07 -.294E-07 -.294E-07
 
 
 POSITION                                       TOTAL-FORCE (eV/Angst)
 -----------------------------------------------------------------------------------
      3.96162      3.96162      6.03238        -0.256936     -0.256936      0.256936
      3.96162      6.03238      3.96162        -0.256936      0.256936     -0.256936
      6.03238      3.96162      3.96162         0.256936     -0.256936     -0.256936
      6.03238      6.03238      6.03238         0.256936      0.256936      0.256936
      0.00000      0.00000      0.00000         0.000000      0.000000      0.000000
      6.39616      6.39616      3.59784         0.536072      0.536072     -0.536072
      6.39616      3.59784      6.39616         0.536072     -0.536072      0.536072
      3.59784      6.39616      6.39616        -0.536072      0.536072      0.536072
      3.59784      3.59784      3.59784        -0.536072     -0.536072     -0.536072
      6.33020      6.33020      8.66080         0.056409      0.056409     -0.056409
      6.33020      8.66080      6.33020         0.056409     -0.056409      0.056409
      8.66080      6.33020      6.33020        -0.056409      0.056409      0.056409
      8.66080      8.66080      8.66080        -0.056409     -0.056409     -0.056409
 -----------------------------------------------------------------------------------
    total drift:                               -0.000000     -0.000000     -0.000000


--------------------------------------------------------------------------------------------------------



  FREE ENERGIE OF THE ION-ELECTRON SYSTEM (eV)
  ---------------------------------------------------
  free  energy   TOTEN  =       -78.86697967 eV

  energy  without entropy=      -78.85449216  energy(sigma->0) =      -78.86073592
 


--------------------------------------------------------------------------------------------------------


    POTLOK:  cpu time    0.2700: real time    0.2744


--------------------------------------------------------------------------------------------------------


     LOOP+:  cpu time   21.0138: real time   21.6598
    4ORBIT:  cpu time    0.0000: real time    0.0000

 total amount of memory used by VASP on root node    41580. kBytes
========================================================================

   base      :      30000. kBytes
   nonl-proj :       1107. kBytes
   fftplans  :       4720. kBytes
   grid      :       4300. kBytes
   one-center:         62. kBytes
   wavefun   :       1391. kBytes
 
  
  
 General timing and accounting informations for this job:
 ========================================================
  
                  Total CPU time used (sec):       23.709
                            User time (sec):       22.836
                          System time (sec):        0.874
                         Elapsed time (sec):       24.980
  
                   Maximum memory used (kb):      225656.
                   Average memory used (kb):           0.
  
                          Minor page faults:        77773
                          Major page faults:          378
                 Voluntary context switches:         9790
