<?xml version="1.0" encoding="ISO-8859-1"?>
<modeling>
 <generator>
  <i name="program" type="string">vasp </i>
  <i name="version" type="string">5.4.1  </i>
  <i name="subversion" type="string">24Jun15 (build Nov 23 2015 09:58:10) complex                          parallel </i>
  <i name="platform" type="string">LinuxIFC </i>
  <i name="date" type="string">2020 05 21 </i>
  <i name="time" type="string">17:27:43 </i>
 </generator>
 <incar>
  <i type="string" name="SYSTEM"> matgen</i>
  <i type="int" name="ISTART">     0</i>
  <i type="string" name="PREC">accurate</i>
  <i type="string" name="ALGO"> Normal</i>
  <i type="logical" name="LDIAG"> T  </i>
  <i type="logical" name="ADDGRID"> T  </i>
  <i type="int" name="ISPIN">     2</i>
  <i name="AMIX">      0.10000000</i>
  <i name="BMIX">      1.20000000</i>
  <i type="int" name="INIWAV">     1</i>
  <i type="int" name="NELM">   140</i>
  <i type="int" name="NELMIN">     5</i>
  <i type="int" name="IBRION">    -1</i>
  <i name="EDIFF">      0.00010000</i>
  <i name="EDIFFG">     -0.01000000</i>
  <i type="int" name="NSW">     0</i>
  <i type="int" name="ISIF">     0</i>
  <i type="int" name="NBLOCK">     1</i>
  <i type="int" name="KBLOCK">     5</i>
  <i name="ENCUT">    520.00000000</i>
  <i name="POTIM">      0.05000000</i>
  <i type="logical" name="LREAL"> F  </i>
  <i type="int" name="ISMEAR">     0</i>
  <i name="SIGMA">      0.05000000</i>
  <i name="WEIMIN">      0.00000000</i>
  <i type="int" name="NWRITE">     2</i>
  <i type="logical" name="LCORR"> T  </i>
  <i type="int" name="LMAXMIX">     4</i>
  <i type="logical" name="LWAVE"> F  </i>
  <i type="logical" name="LCHARG"> F  </i>
  <v type="int" name="KPOINT_BSE">    -1     0     0     0</v>
  <i type="int" name="NELM">   140</i>
  <i type="logical" name="LDAU"> T  </i>
  <v type="int" name="LDAUTYPE">     2</v>
  <v type="int" name="LDAUL">     2     2    -1</v>
  <v name="LDAUU">      2.00000000      3.90000000      0.00000000</v>
  <v name="LDAUJ">      0.00000000      0.00000000      0.00000000</v>
 </incar>
 <kpoints>
  <generation param="Gamma">
   <v type="int" name="divisions">       3        3        3 </v>
   <v name="usershift">      0.00000000       0.00000000       0.00000000 </v>
   <v name="genvec1">      0.33333333       0.00000000       0.00000000 </v>
   <v name="genvec2">      0.00000000       0.33333333       0.00000000 </v>
   <v name="genvec3">      0.00000000       0.00000000       0.33333333 </v>
   <v name="shift">      0.00000000       0.00000000       0.00000000 </v>
  </generation>
  <varray name="kpointlist" >
   <v>       0.00000000       0.00000000       0.00000000 </v>
   <v>       0.33333333       0.00000000       0.00000000 </v>
   <v>       0.33333333       0.33333333       0.00000000 </v>
   <v>      -0.33333333       0.33333333       0.00000000 </v>
  </varray>
  <varray name="weights" >
   <v>       0.03703704 </v>
   <v>       0.29629630 </v>
   <v>       0.22222222 </v>
   <v>       0.44444444 </v>
  </varray>
 </kpoints>
 <parameters>
  <separator name="general" >
   <i type="string" name="SYSTEM">matgen</i>
   <i type="logical" name="LCOMPAT"> F  </i>
  </separator>
  <separator name="electronic" >
   <i type="string" name="PREC">accura</i>
   <i name="ENMAX">    520.00000000</i>
   <i name="ENAUG">    490.69000000</i>
   <i name="EDIFF">      0.00010000</i>
   <i type="int" name="IALGO">    38</i>
   <i type="int" name="IWAVPR">    10</i>
   <i type="int" name="NBANDS">    72</i>
   <i name="NELECT">    105.00000000</i>
   <i type="int" name="TURBO">     0</i>
   <i type="int" name="IRESTART">     0</i>
   <i type="int" name="NREBOOT">     0</i>
   <i type="int" name="NMIN">     0</i>
   <i name="EREF">      0.00000000</i>
   <separator name="electronic smearing" >
    <i type="int" name="ISMEAR">     0</i>
    <i name="SIGMA">      0.05000000</i>
    <i name="KSPACING">      0.50000000</i>
    <i type="logical" name="KGAMMA"> T  </i>
   </separator>
   <separator name="electronic projectors" >
    <i type="logical" name="LREAL"> F  </i>
    <v name="ROPT">      0.00000000      0.00000000      0.00000000</v>
    <i type="int" name="LMAXPAW">  -100</i>
    <i type="int" name="LMAXMIX">     4</i>
    <i type="logical" name="NLSPLINE"> F  </i>
   </separator>
   <separator name="electronic startup" >
    <i type="int" name="ISTART">     0</i>
    <i type="int" name="ICHARG">     2</i>
    <i type="int" name="INIWAV">     1</i>
   </separator>
   <separator name="electronic spin" >
    <i type="int" name="ISPIN">     2</i>
    <i type="logical" name="LNONCOLLINEAR"> F  </i>
    <v name="MAGMOM">      1.00000000      1.00000000      1.00000000      1.00000000      1.00000000      1.00000000      1.00000000      1.00000000      1.00000000      1.00000000      1.00000000      1.00000000      1.00000000</v>
    <i name="NUPDOWN">     -1.00000000</i>
    <i type="logical" name="LSORBIT"> F  </i>
    <v name="SAXIS">      0.00000000      0.00000000      1.00000000</v>
    <i type="logical" name="LSPIRAL"> F  </i>
    <v name="QSPIRAL">      0.00000000      0.00000000      0.00000000</v>
    <i type="logical" name="LZEROZ"> F  </i>
   </separator>
   <separator name="electronic exchange-correlation" >
    <i type="logical" name="LASPH"> F  </i>
    <i type="logical" name="LMETAGGA"> F  </i>
   </separator>
   <separator name="electronic convergence" >
    <i type="int" name="NELM">   140</i>
    <i type="int" name="NELMDL">    -5</i>
    <i type="int" name="NELMIN">     5</i>
    <i name="ENINI">    520.00000000</i>
    <separator name="electronic convergence detail" >
     <i type="logical" name="LDIAG"> T  </i>
     <i type="logical" name="LSUBROT"> F  </i>
     <i name="WEIMIN">      0.00000000</i>
     <i name="EBREAK">      0.00000035</i>
     <i name="DEPER">      0.30000000</i>
     <i type="int" name="NRMM">     4</i>
     <i name="TIME">      0.40000000</i>
    </separator>
   </separator>
   <separator name="electronic mixer" >
    <i name="AMIX">      0.10000000</i>
    <i name="BMIX">      1.20000000</i>
    <i name="AMIN">      0.10000000</i>
    <i name="AMIX_MAG">      0.40000000</i>
    <i name="BMIX_MAG">      1.20000000</i>
    <separator name="electronic mixer details" >
     <i type="int" name="IMIX">     4</i>
     <i type="logical" name="MIXFIRST"> F  </i>
     <i type="int" name="MAXMIX">   -45</i>
     <i name="WC">    100.00000000</i>
     <i type="int" name="INIMIX">     1</i>
     <i type="int" name="MIXPRE">     1</i>
     <i type="int" name="MREMOVE">     5</i>
    </separator>
   </separator>
   <separator name="electronic dipolcorrection" >
    <i type="logical" name="LDIPOL"> F  </i>
    <i type="logical" name="LMONO"> F  </i>
    <i type="int" name="IDIPOL">     0</i>
    <i name="EPSILON">      1.00000000</i>
    <v name="DIPOL">   -100.00000000   -100.00000000   -100.00000000</v>
    <i name="EFIELD">      0.00000000</i>
   </separator>
  </separator>
  <separator name="grids" >
   <i type="int" name="NGX">    54</i>
   <i type="int" name="NGY">    54</i>
   <i type="int" name="NGZ">    54</i>
   <i type="int" name="NGXF">   108</i>
   <i type="int" name="NGYF">   108</i>
   <i type="int" name="NGZF">   108</i>
   <i type="logical" name="ADDGRID"> T  </i>
  </separator>
  <separator name="ionic" >
   <i type="int" name="NSW">     0</i>
   <i type="int" name="IBRION">    -1</i>
   <i type="int" name="ISIF">     0</i>
   <i name="PSTRESS">      0.00000000</i>
   <i name="EDIFFG">     -0.01000000</i>
   <i type="int" name="NFREE">     0</i>
   <i name="POTIM">      0.05000000</i>
   <i name="SMASS">     -3.00000000</i>
   <i name="SCALEE">      1.00000000</i>
  </separator>
  <separator name="ionic md" >
   <i name="TEBEG">      0.00010000</i>
   <i name="TEEND">      0.00010000</i>
   <i type="int" name="NBLOCK">     1</i>
   <i type="int" name="KBLOCK">     1</i>
   <i type="int" name="NPACO">   256</i>
   <i name="APACO">     16.00000000</i>
  </separator>
  <separator name="symmetry" >
   <i type="int" name="ISYM">     2</i>
   <i name="SYMPREC">      0.00001000</i>
  </separator>
  <separator name="dos" >
   <i type="logical" name="LORBIT"> F  </i>
   <v name="RWIGS">     -1.00000000     -1.00000000     -1.00000000</v>
   <i type="int" name="NEDOS">   301</i>
   <i name="EMIN">     10.00000000</i>
   <i name="EMAX">    -10.00000000</i>
   <i name="EFERMI">      0.00000000</i>
  </separator>
  <separator name="writing" >
   <i type="int" name="NWRITE">     2</i>
   <i type="logical" name="LWAVE"> F  </i>
   <i type="logical" name="LCHARG"> F  </i>
   <i type="logical" name="LPARD"> F  </i>
   <i type="logical" name="LVTOT"> F  </i>
   <i type="logical" name="LVHAR"> F  </i>
   <i type="logical" name="LELF"> F  </i>
   <i type="logical" name="LOPTICS"> F  </i>
   <v name="STM">      0.00000000      0.00000000      0.00000000      0.00000000      0.00000000      0.00000000      0.00000000</v>
  </separator>
  <separator name="performance" >
   <i type="int" name="NPAR">     4</i>
   <i type="int" name="NSIM">     4</i>
   <i type="int" name="NBLK">    -1</i>
   <i type="logical" name="LPLANE"> T  </i>
   <i type="logical" name="LSCALAPACK"> T  </i>
   <i type="logical" name="LSCAAWARE"> F  </i>
   <i type="logical" name="LSCALU"> F  </i>
   <i type="logical" name="LASYNC"> F  </i>
   <i type="logical" name="LORBITALREAL"> F  </i>
  </separator>
  <separator name="miscellaneous" >
   <i type="int" name="IDIOT">     3</i>
   <i type="logical" name="LMUSIC"> F  </i>
   <v name="POMASS">    180.94800000     69.72300000     78.96000000</v>
   <v name="DARWINR">      0.00000000      0.00000000      0.00000000</v>
   <v name="DARWINV">      1.00000000      1.00000000      1.00000000</v>
   <i type="logical" name="LCORR"> T  </i>
  </separator>
  <i type="logical" name="GGA_COMPAT"> T  </i>
  <i type="logical" name="LBERRY"> F  </i>
  <i type="int" name="ICORELEVEL">     0</i>
  <i type="logical" name="LDAU"> T  </i>
  <v type="int" name="LDAUTYPE">     2</v>
  <v type="int" name="LDAUL">     2</v>
  <v name="LDAUU">      2.00000000</v>
  <v name="LDAUJ">      0.00000000</v>
  <i type="int" name="LDAUPRINT">     0</i>
  <i type="int" name="I_CONSTRAINED_M">     0</i>
  <separator name="electronic exchange-correlation" >
   <i type="string" name="GGA">--</i>
   <i type="int" name="VOSKOWN">     0</i>
   <i type="logical" name="LHFCALC"> F  </i>
   <i type="string" name="PRECFOCK"></i>
   <i type="logical" name="LSYMGRAD"> F  </i>
   <i type="logical" name="LHFONE"> F  </i>
   <i type="logical" name="LRHFCALC"> F  </i>
   <i type="logical" name="LTHOMAS"> F  </i>
   <i type="logical" name="LMODELHF"> F  </i>
   <i name="ENCUT4O">     -1.00000000</i>
   <i type="int" name="EXXOEP">     0</i>
   <i type="int" name="FOURORBIT">     0</i>
   <i name="AEXX">      0.00000000</i>
   <i name="HFALPHA">      0.00000000</i>
   <i name="MCALPHA">      0.00000000</i>
   <i name="ALDAX">      1.00000000</i>
   <i name="AGGAX">      1.00000000</i>
   <i name="ALDAC">      1.00000000</i>
   <i name="AGGAC">      1.00000000</i>
   <i type="int" name="NKREDX">     1</i>
   <i type="int" name="NKREDY">     1</i>
   <i type="int" name="NKREDZ">     1</i>
   <i type="logical" name="SHIFTRED"> F  </i>
   <i type="logical" name="ODDONLY"> F  </i>
   <i type="logical" name="EVENONLY"> F  </i>
   <i type="int" name="LMAXFOCK">     0</i>
   <i type="int" name="NMAXFOCKAE">     0</i>
   <i type="logical" name="LFOCKAEDFT"> F  </i>
   <i name="HFSCREEN">      0.00000000</i>
   <i name="HFSCREENC">      0.00000000</i>
   <i type="int" name="NBANDSGWLOW">     0</i>
  </separator>
  <separator name="vdW DFT" >
   <i type="logical" name="LUSE_VDW"> F  </i>
   <i name="Zab_VDW">     -0.84910000</i>
   <i name="PARAM1">      0.12340000</i>
   <i name="PARAM2">      1.00000000</i>
   <i name="PARAM3">      0.00000000</i>
  </separator>
  <separator name="model GW" >
   <i type="int" name="MODEL_GW">     0</i>
   <i name="MODEL_EPS0">     11.51770477</i>
   <i name="MODEL_ALPHA">      1.00000000</i>
  </separator>
  <separator name="linear response parameters" >
   <i type="logical" name="LEPSILON"> F  </i>
   <i type="logical" name="LRPA"> F  </i>
   <i type="logical" name="LNABLA"> F  </i>
   <i type="logical" name="LVEL"> F  </i>
   <i type="int" name="KINTER">     0</i>
   <i name="CSHIFT">      0.10000000</i>
   <i name="OMEGAMAX">     -1.00000000</i>
   <i name="DEG_THRESHOLD">      0.00200000</i>
  </separator>
  <separator name="orbital magnetization" >
   <i type="logical" name="NUCIND"> F  </i>
   <v name="MAGPOS">      0.00000000      0.00000000      0.00000000</v>
   <i type="logical" name="LNICSALL"> T  </i>
   <i type="logical" name="ORBITALMAG"> F  </i>
   <i type="logical" name="LMAGBLOCH"> F  </i>
   <i type="logical" name="LCHIMAG"> F  </i>
   <i type="logical" name="LGAUGE"> T  </i>
   <i type="int" name="MAGATOM">     0</i>
   <v name="MAGDIPOL">      0.00000000      0.00000000      0.00000000</v>
   <v name="AVECCONST">      0.00000000      0.00000000      0.00000000</v>
  </separator>
  <separator name="response functions" >
   <i type="logical" name="LADDER"> F  </i>
   <i type="logical" name="LFXC"> F  </i>
   <i type="logical" name="LHARTREE"> T  </i>
   <i type="int" name="IBSE">     0</i>
   <v type="int" name="KPOINT">    -1     0     0     0</v>
   <i type="logical" name="LTCTE"> F  </i>
   <i type="logical" name="LTETE"> F  </i>
   <i type="logical" name="LTRIPLET"> F  </i>
   <i type="logical" name="LFXCEPS"> F  </i>
   <i type="logical" name="LFXHEG"> F  </i>
   <i type="int" name="NATURALO">     0</i>
   <i type="logical" name="L2ORDER"> F  </i>
   <i type="logical" name="LUSEW"> F  </i>
   <i name="ENCUTGW">     -2.00000000</i>
   <i name="ENCUTGWSOFT">     -2.00000000</i>
   <i name="ENCUTLF">     -1.00000000</i>
   <i type="int" name="LMAXMP2">    -1</i>
   <i name="SCISSOR">      0.00000000</i>
   <i type="int" name="NOMEGA">     0</i>
   <i type="int" name="NOMEGAR">     0</i>
   <i type="int" name="NBANDSGW">    -1</i>
   <i type="int" name="NBANDSO">    -1</i>
   <i type="int" name="NBANDSV">    -1</i>
   <i type="int" name="NELM">   140</i>
   <i type="int" name="NELMHF">     1</i>
   <i type="int" name="DIM">     3</i>
   <i type="int" name="ANTIRES">     0</i>
   <i name="OMEGAMAX">    -30.00000000</i>
   <i name="OMEGAMIN">    -30.00000000</i>
   <i name="OMEGATL">   -200.00000000</i>
   <i type="int" name="OMEGAGRID">     0</i>
   <i name="CSHIFT">     -0.10000000</i>
   <i type="logical" name="SELFENERGY"> F  </i>
   <i type="logical" name="LSPECTRAL"> F  </i>
   <i type="logical" name="LSPECTRALGW"> F  </i>
   <i type="logical" name="LSINGLES"> F  </i>
   <i type="logical" name="LFERMIGW"> F  </i>
   <i type="logical" name="ODDONLYGW"> F  </i>
   <i type="logical" name="EVENONLYGW"> F  </i>
   <i type="int" name="NKREDLFX">     1</i>
   <i type="int" name="NKREDLFY">     1</i>
   <i type="int" name="NKREDLFZ">     1</i>
   <i type="int" name="MAXMEM">  1800</i>
   <i type="int" name="TELESCOPE">     0</i>
   <i type="int" name="TAUPAR">     1</i>
   <i type="int" name="OMEGAPAR">    -1</i>
   <i name="LAMBDA">      1.00000000</i>
  </separator>
  <separator name="External order field" >
   <i name="OFIELD_KAPPA">      0.00000000</i>
   <v name="OFIELD_K">      0.00000000      0.00000000      0.00000000</v>
   <i name="OFIELD_Q6_NEAR">      0.00000000</i>
   <i name="OFIELD_Q6_FAR">      0.00000000</i>
   <i name="OFIELD_A">      0.00000000</i>
  </separator>
 </parameters>
 <atominfo>
  <atoms>      13 </atoms>
  <types>       3 </types>
  <array name="atoms" >
   <dimension dim="1">ion</dimension>
   <field type="string">element</field>
   <field type="int">atomtype</field>
   <set>
    <rc><c>Ta</c><c>   1</c></rc>
    <rc><c>Ta</c><c>   1</c></rc>
    <rc><c>Ta</c><c>   1</c></rc>
    <rc><c>Ta</c><c>   1</c></rc>
    <rc><c>Ga</c><c>   2</c></rc>
    <rc><c>Se</c><c>   3</c></rc>
    <rc><c>Se</c><c>   3</c></rc>
    <rc><c>Se</c><c>   3</c></rc>
    <rc><c>Se</c><c>   3</c></rc>
    <rc><c>Se</c><c>   3</c></rc>
    <rc><c>Se</c><c>   3</c></rc>
    <rc><c>Se</c><c>   3</c></rc>
    <rc><c>Se</c><c>   3</c></rc>
   </set>
  </array>
  <array name="atomtypes" >
   <dimension dim="1">type</dimension>
   <field type="int">atomspertype</field>
   <field type="string">element</field>
   <field>mass</field>
   <field>valence</field>
   <field type="string">pseudopotential</field>
   <set>
    <rc><c>   4</c><c>Ta</c><c>    180.94800000</c><c>     11.00000000</c><c>  PAW_PBE Ta_pv 07Sep2000               </c></rc>
    <rc><c>   1</c><c>Ga</c><c>     69.72300000</c><c>     13.00000000</c><c>  PAW_PBE Ga_d 06Jul2010                </c></rc>
    <rc><c>   8</c><c>Se</c><c>     78.96000000</c><c>      6.00000000</c><c>  PAW_PBE Se 06Sep2000                  </c></rc>
   </set>
  </array>
 </atominfo>
 <structure name="initialpos" >
  <crystal>
   <varray name="basis" >
    <v>       0.00000000       4.99700000       4.99700000 </v>
    <v>       4.99700000       0.00000000       4.99700000 </v>
    <v>       4.99700000       4.99700000       0.00000000 </v>
   </varray>
   <i name="volume">    249.55026995 </i>
   <varray name="rec_basis" >
    <v>      -0.10006004       0.10006004       0.10006004 </v>
    <v>       0.10006004      -0.10006004       0.10006004 </v>
    <v>       0.10006004       0.10006004      -0.10006004 </v>
   </varray>
  </crystal>
  <varray name="positions" >
   <v>       0.60360000       0.60360000       0.18920000 </v>
   <v>       0.60360000       0.18920000       0.60360000 </v>
   <v>       0.18920000       0.60360000       0.60360000 </v>
   <v>       0.60360000       0.60360000       0.60360000 </v>
   <v>       0.00000000       0.00000000       0.00000000 </v>
   <v>       0.36000000       0.36000000       0.92000000 </v>
   <v>       0.36000000       0.92000000       0.36000000 </v>
   <v>       0.92000000       0.36000000       0.36000000 </v>
   <v>       0.36000000       0.36000000       0.36000000 </v>
   <v>       0.86660000       0.86660000       0.40020000 </v>
   <v>       0.86660000       0.40020000       0.86660000 </v>
   <v>       0.40020000       0.86660000       0.86660000 </v>
   <v>       0.86660000       0.86660000       0.86660000 </v>
  </varray>
 </structure>
 <calculation>
  <scstep>
   <time name="dav">    0.79    1.03</time>
   <time name="total">    1.09    1.37</time>
   <energy>
    <i name="alphaZ">    590.10286658 </i>
    <i name="ewald">  -6473.88748535 </i>
    <i name="hartreedc">  -1817.87196087 </i>
    <i name="XCdc">    138.98599804 </i>
    <i name="pawpsdc">   6568.38814909 </i>
    <i name="pawaedc">  -6703.61005876 </i>
    <i name="eentropy">     -0.00272300 </i>
    <i name="bandstr">    364.39547592 </i>
    <i name="atom">   8394.63709520 </i>
    <i name="e_fr_energy">   1061.13735685 </i>
    <i name="e_wo_entrp">   1061.14007985 </i>
    <i name="e_0_energy">   1061.13871835 </i>
   </energy>
  </scstep>
  <scstep>
   <time name="dav">    0.73    0.74</time>
   <time name="total">    0.74    0.76</time>
   <energy>
    <i name="e_fr_energy">     49.68041787 </i>
    <i name="e_wo_entrp">     49.68942115 </i>
    <i name="e_0_energy">     49.68491951 </i>
   </energy>
  </scstep>
  <scstep>
   <time name="dav">    0.76    0.76</time>
   <time name="total">    0.76    0.78</time>
   <energy>
    <i name="e_fr_energy">    -74.05258032 </i>
    <i name="e_wo_entrp">    -74.04628105 </i>
    <i name="e_0_energy">    -74.04943069 </i>
   </energy>
  </scstep>
  <scstep>
   <time name="dav">    0.80    0.80</time>
   <time name="total">    0.80    0.82</time>
   <energy>
    <i name="e_fr_energy">    -80.31322385 </i>
    <i name="e_wo_entrp">    -80.30947968 </i>
    <i name="e_0_energy">    -80.31135177 </i>
   </energy>
  </scstep>
  <scstep>
   <time name="dav">    0.79    0.79</time>
   <time name="total">    1.09    1.14</time>
   <energy>
    <i name="e_fr_energy">    -80.45806823 </i>
    <i name="e_wo_entrp">    -80.45433352 </i>
    <i name="e_0_energy">    -80.45620088 </i>
   </energy>
  </scstep>
  <scstep>
   <time name="dav">    0.79    0.80</time>
   <time name="total">    1.36    1.40</time>
   <energy>
    <i name="e_fr_energy">    -79.78013273 </i>
    <i name="e_wo_entrp">    -79.77654580 </i>
    <i name="e_0_energy">    -79.77833927 </i>
   </energy>
  </scstep>
  <scstep>
   <time name="dav">    0.76    0.77</time>
   <time name="total">    1.33    1.36</time>
   <energy>
    <i name="e_fr_energy">    -78.64432888 </i>
    <i name="e_wo_entrp">    -78.64198034 </i>
    <i name="e_0_energy">    -78.64315461 </i>
   </energy>
  </scstep>
  <scstep>
   <time name="dav">    0.76    0.76</time>
   <time name="total">    1.33    1.35</time>
   <energy>
    <i name="e_fr_energy">    -78.90440984 </i>
    <i name="e_wo_entrp">    -78.89893315 </i>
    <i name="e_0_energy">    -78.90167149 </i>
   </energy>
  </scstep>
  <scstep>
   <time name="dav">    0.77    0.77</time>
   <time name="total">    1.33    1.35</time>
   <energy>
    <i name="e_fr_energy">    -78.90547330 </i>
    <i name="e_wo_entrp">    -78.89698211 </i>
    <i name="e_0_energy">    -78.90122770 </i>
   </energy>
  </scstep>
  <scstep>
   <time name="dav">    0.78    0.78</time>
   <time name="total">    1.35    1.36</time>
   <energy>
    <i name="e_fr_energy">    -78.88084084 </i>
    <i name="e_wo_entrp">    -78.86829364 </i>
    <i name="e_0_energy">    -78.87456724 </i>
   </energy>
  </scstep>
  <scstep>
   <time name="dav">    0.77    0.77</time>
   <time name="total">    1.33    1.35</time>
   <energy>
    <i name="e_fr_energy">    -78.86127890 </i>
    <i name="e_wo_entrp">    -78.84887602 </i>
    <i name="e_0_energy">    -78.85507746 </i>
   </energy>
  </scstep>
  <scstep>
   <time name="dav">    0.78    0.78</time>
   <time name="total">    1.35    1.36</time>
   <energy>
    <i name="e_fr_energy">    -78.86454756 </i>
    <i name="e_wo_entrp">    -78.85201265 </i>
    <i name="e_0_energy">    -78.85828011 </i>
   </energy>
  </scstep>
  <scstep>
   <time name="dav">    0.77    0.77</time>
   <time name="total">    1.34    1.36</time>
   <energy>
    <i name="e_fr_energy">    -78.86550956 </i>
    <i name="e_wo_entrp">    -78.85299024 </i>
    <i name="e_0_energy">    -78.85924990 </i>
   </energy>
  </scstep>
  <scstep>
   <time name="dav">    0.77    0.77</time>
   <time name="total">    1.34    1.36</time>
   <energy>
    <i name="e_fr_energy">    -78.86670034 </i>
    <i name="e_wo_entrp">    -78.85415860 </i>
    <i name="e_0_energy">    -78.86042947 </i>
   </energy>
  </scstep>
  <scstep>
   <time name="dav">    0.72    0.72</time>
   <time name="total">    1.29    1.30</time>
   <energy>
    <i name="e_fr_energy">    -78.86697122 </i>
    <i name="e_wo_entrp">    -78.85447350 </i>
    <i name="e_0_energy">    -78.86072236 </i>
   </energy>
  </scstep>
  <scstep>
   <time name="dav">    0.69    0.69</time>
   <time name="total">    0.95    0.97</time>
   <energy>
    <i name="alphaZ">    590.10286658 </i>
    <i name="ewald">  -6473.88748535 </i>
    <i name="hartreedc">  -1773.00420851 </i>
    <i name="XCdc">    137.78821456 </i>
    <i name="pawpsdc">  12256.41998078 </i>
    <i name="pawaedc"> -12405.97435110 </i>
    <i name="eentropy">     -0.01248751 </i>
    <i name="bandstr">   -804.93660432 </i>
    <i name="atom">   8394.63709520 </i>
    <i name="e_fr_energy">    -78.86697967 </i>
    <i name="e_wo_entrp">    -78.85449216 </i>
    <i name="e_0_energy">    -78.86073592 </i>
   </energy>
  </scstep>
  <structure>
   <crystal>
    <varray name="basis" >
     <v>       0.00000000       4.99700000       4.99700000 </v>
     <v>       4.99700000       0.00000000       4.99700000 </v>
     <v>       4.99700000       4.99700000       0.00000000 </v>
    </varray>
    <i name="volume">    249.55026995 </i>
    <varray name="rec_basis" >
     <v>      -0.10006004       0.10006004       0.10006004 </v>
     <v>       0.10006004      -0.10006004       0.10006004 </v>
     <v>       0.10006004       0.10006004      -0.10006004 </v>
    </varray>
   </crystal>
   <varray name="positions" >
    <v>       0.60360000       0.60360000       0.18920000 </v>
    <v>       0.60360000       0.18920000       0.60360000 </v>
    <v>       0.18920000       0.60360000       0.60360000 </v>
    <v>       0.60360000       0.60360000       0.60360000 </v>
    <v>       0.00000000       0.00000000       0.00000000 </v>
    <v>       0.36000000       0.36000000       0.92000000 </v>
    <v>       0.36000000       0.92000000       0.36000000 </v>
    <v>       0.92000000       0.36000000       0.36000000 </v>
    <v>       0.36000000       0.36000000       0.36000000 </v>
    <v>       0.86660000       0.86660000       0.40020000 </v>
    <v>       0.86660000       0.40020000       0.86660000 </v>
    <v>       0.40020000       0.86660000       0.86660000 </v>
    <v>       0.86660000       0.86660000       0.86660000 </v>
   </varray>
  </structure>
  <varray name="forces" >
   <v>      -0.25693587      -0.25693587       0.25693587 </v>
   <v>      -0.25693587       0.25693587      -0.25693587 </v>
   <v>       0.25693587      -0.25693587      -0.25693587 </v>
   <v>       0.25693587       0.25693587       0.25693587 </v>
   <v>       0.00000000       0.00000000       0.00000000 </v>
   <v>       0.53607189       0.53607189      -0.53607189 </v>
   <v>       0.53607189      -0.53607189       0.53607189 </v>
   <v>      -0.53607189       0.53607189       0.53607189 </v>
   <v>      -0.53607189      -0.53607189      -0.53607189 </v>
   <v>       0.05640868       0.05640868      -0.05640868 </v>
   <v>       0.05640868      -0.05640868       0.05640868 </v>
   <v>      -0.05640868       0.05640868       0.05640868 </v>
   <v>      -0.05640868      -0.05640868      -0.05640868 </v>
  </varray>
  <energy>
   <i name="e_fr_energy">    -78.86697967 </i>
   <i name="e_wo_entrp">    -78.86073592 </i>
   <i name="e_0_energy">     -0.01248751 </i>
  </energy>
  <time name="totalsc">   21.01   21.66</time>
  <eigenvalues>
   <array>
    <dimension dim="1">band</dimension>
    <dimension dim="2">kpoint</dimension>
    <dimension dim="3">spin</dimension>
    <field>eigene</field>
    <field>occ</field>
    <set>
     <set comment="spin 1">
      <set comment="kpoint 1">
       <r>  -29.4041    1.0000 </r>
       <r>  -29.1259    1.0000 </r>
       <r>  -29.1259    1.0000 </r>
       <r>  -29.1259    1.0000 </r>
       <r>  -29.0061    1.0000 </r>
       <r>  -29.0061    1.0000 </r>
       <r>  -28.8171    1.0000 </r>
       <r>  -28.8171    1.0000 </r>
       <r>  -28.8171    1.0000 </r>
       <r>  -28.8016    1.0000 </r>
       <r>  -28.8016    1.0000 </r>
       <r>  -28.8016    1.0000 </r>
       <r>  -11.6865    1.0000 </r>
       <r>  -11.6865    1.0000 </r>
       <r>  -11.6865    1.0000 </r>
       <r>  -11.4773    1.0000 </r>
       <r>  -11.4773    1.0000 </r>
       <r>   -9.5392    1.0000 </r>
       <r>   -7.7389    1.0000 </r>
       <r>   -7.4171    1.0000 </r>
       <r>   -7.4171    1.0000 </r>
       <r>   -7.4171    1.0000 </r>
       <r>   -7.1846    1.0000 </r>
       <r>   -7.1846    1.0000 </r>
       <r>   -7.1846    1.0000 </r>
       <r>   -2.8538    1.0000 </r>
       <r>   -1.0361    1.0000 </r>
       <r>   -1.0361    1.0000 </r>
       <r>   -1.0361    1.0000 </r>
       <r>   -0.4093    1.0000 </r>
       <r>    0.5999    1.0000 </r>
       <r>    0.5999    1.0000 </r>
       <r>    2.4564    1.0000 </r>
       <r>    2.4564    1.0000 </r>
       <r>    2.4564    1.0000 </r>
       <r>    2.6792    1.0000 </r>
       <r>    2.6792    1.0000 </r>
       <r>    2.6792    1.0000 </r>
       <r>    2.9528    1.0000 </r>
       <r>    2.9528    1.0000 </r>
       <r>    3.0694    1.0000 </r>
       <r>    3.0694    1.0000 </r>
       <r>    3.0694    1.0000 </r>
       <r>    3.4001    1.0000 </r>
       <r>    3.6429    1.0000 </r>
       <r>    3.6429    1.0000 </r>
       <r>    3.6429    1.0000 </r>
       <r>    4.8582    1.0000 </r>
       <r>    4.8582    1.0000 </r>
       <r>    5.0336    1.0000 </r>
       <r>    5.0336    1.0000 </r>
       <r>    5.0336    1.0000 </r>
       <r>    6.3868    0.0495 </r>
       <r>    6.3868    0.0495 </r>
       <r>    6.3868    0.0495 </r>
       <r>    7.1293    0.0000 </r>
       <r>    8.6826    0.0000 </r>
       <r>    8.6826    0.0000 </r>
       <r>    8.6826    0.0000 </r>
       <r>    8.9462    0.0000 </r>
       <r>    8.9462    0.0000 </r>
       <r>    8.9462    0.0000 </r>
       <r>    9.4073    0.0000 </r>
       <r>    9.4073    0.0000 </r>
       <r>    9.4073    0.0000 </r>
       <r>    9.8481    0.0000 </r>
       <r>    9.8481    0.0000 </r>
       <r>    9.8565    0.0000 </r>
       <r>    9.8565    0.0000 </r>
       <r>    9.8565    0.0000 </r>
       <r>   10.1339    0.0000 </r>
       <r>   11.2454    0.0000 </r>
      </set>
      <set comment="kpoint 2">
       <r>  -29.3944    1.0000 </r>
       <r>  -29.1236    1.0000 </r>
       <r>  -29.1212    1.0000 </r>
       <r>  -29.1212    1.0000 </r>
       <r>  -29.0050    1.0000 </r>
       <r>  -29.0050    1.0000 </r>
       <r>  -28.8219    1.0000 </r>
       <r>  -28.8219    1.0000 </r>
       <r>  -28.8171    1.0000 </r>
       <r>  -28.8152    1.0000 </r>
       <r>  -28.8031    1.0000 </r>
       <r>  -28.8031    1.0000 </r>
       <r>  -11.6900    1.0000 </r>
       <r>  -11.6863    1.0000 </r>
       <r>  -11.6863    1.0000 </r>
       <r>  -11.4773    1.0000 </r>
       <r>  -11.4773    1.0000 </r>
       <r>   -9.1380    1.0000 </r>
       <r>   -8.1169    1.0000 </r>
       <r>   -7.7748    1.0000 </r>
       <r>   -7.4338    1.0000 </r>
       <r>   -7.4338    1.0000 </r>
       <r>   -7.1815    1.0000 </r>
       <r>   -7.1815    1.0000 </r>
       <r>   -7.1614    1.0000 </r>
       <r>   -2.1335    1.0000 </r>
       <r>   -0.4877    1.0000 </r>
       <r>   -0.4877    1.0000 </r>
       <r>   -0.4519    1.0000 </r>
       <r>    0.0687    1.0000 </r>
       <r>    0.5414    1.0000 </r>
       <r>    0.5414    1.0000 </r>
       <r>    0.9344    1.0000 </r>
       <r>    1.6453    1.0000 </r>
       <r>    1.6453    1.0000 </r>
       <r>    2.3367    1.0000 </r>
       <r>    2.4683    1.0000 </r>
       <r>    2.4683    1.0000 </r>
       <r>    2.7555    1.0000 </r>
       <r>    2.7860    1.0000 </r>
       <r>    2.7860    1.0000 </r>
       <r>    2.9794    1.0000 </r>
       <r>    3.1446    1.0000 </r>
       <r>    3.1446    1.0000 </r>
       <r>    3.7236    1.0000 </r>
       <r>    3.7236    1.0000 </r>
       <r>    4.0733    1.0000 </r>
       <r>    4.2702    1.0000 </r>
       <r>    4.5649    1.0000 </r>
       <r>    4.5649    1.0000 </r>
       <r>    5.3837    1.0000 </r>
       <r>    5.3837    1.0000 </r>
       <r>    6.4627    0.0001 </r>
       <r>    6.5988    0.0000 </r>
       <r>    6.5988    0.0000 </r>
       <r>    7.2890    0.0000 </r>
       <r>    8.4809    0.0000 </r>
       <r>    8.4809    0.0000 </r>
       <r>    8.8395    0.0000 </r>
       <r>    8.9725    0.0000 </r>
       <r>    8.9725    0.0000 </r>
       <r>    9.3646    0.0000 </r>
       <r>    9.3646    0.0000 </r>
       <r>    9.5494    0.0000 </r>
       <r>    9.8956    0.0000 </r>
       <r>   10.1208    0.0000 </r>
       <r>   10.1208    0.0000 </r>
       <r>   10.4890    0.0000 </r>
       <r>   10.5633    0.0000 </r>
       <r>   10.6805    0.0000 </r>
       <r>   10.6805    0.0000 </r>
       <r>   11.3675    0.0000 </r>
      </set>
      <set comment="kpoint 3">
       <r>  -29.3910    1.0000 </r>
       <r>  -29.1262    1.0000 </r>
       <r>  -29.1179    1.0000 </r>
       <r>  -29.1179    1.0000 </r>
       <r>  -29.0071    1.0000 </r>
       <r>  -29.0022    1.0000 </r>
       <r>  -28.8220    1.0000 </r>
       <r>  -28.8220    1.0000 </r>
       <r>  -28.8211    1.0000 </r>
       <r>  -28.8154    1.0000 </r>
       <r>  -28.8052    1.0000 </r>
       <r>  -28.8052    1.0000 </r>
       <r>  -11.6909    1.0000 </r>
       <r>  -11.6860    1.0000 </r>
       <r>  -11.6860    1.0000 </r>
       <r>  -11.4775    1.0000 </r>
       <r>  -11.4772    1.0000 </r>
       <r>   -9.0195    1.0000 </r>
       <r>   -8.0242    1.0000 </r>
       <r>   -7.8185    1.0000 </r>
       <r>   -7.4882    1.0000 </r>
       <r>   -7.4882    1.0000 </r>
       <r>   -7.4291    1.0000 </r>
       <r>   -7.1442    1.0000 </r>
       <r>   -7.1442    1.0000 </r>
       <r>   -1.8759    1.0000 </r>
       <r>   -0.4655    1.0000 </r>
       <r>   -0.1514    1.0000 </r>
       <r>   -0.0787    1.0000 </r>
       <r>   -0.0787    1.0000 </r>
       <r>    0.7369    1.0000 </r>
       <r>    0.9007    1.0000 </r>
       <r>    0.9644    1.0000 </r>
       <r>    1.4754    1.0000 </r>
       <r>    1.4754    1.0000 </r>
       <r>    2.2176    1.0000 </r>
       <r>    2.3177    1.0000 </r>
       <r>    2.3177    1.0000 </r>
       <r>    2.3338    1.0000 </r>
       <r>    2.5222    1.0000 </r>
       <r>    2.8825    1.0000 </r>
       <r>    2.9156    1.0000 </r>
       <r>    2.9156    1.0000 </r>
       <r>    3.0830    1.0000 </r>
       <r>    3.5101    1.0000 </r>
       <r>    3.6040    1.0000 </r>
       <r>    3.6040    1.0000 </r>
       <r>    4.3539    1.0000 </r>
       <r>    4.3539    1.0000 </r>
       <r>    4.3765    1.0000 </r>
       <r>    5.4576    1.0000 </r>
       <r>    5.7023    1.0000 </r>
       <r>    5.9944    1.0000 </r>
       <r>    6.8381    0.0000 </r>
       <r>    6.8381    0.0000 </r>
       <r>    8.0801    0.0000 </r>
       <r>    8.4162    0.0000 </r>
       <r>    8.4162    0.0000 </r>
       <r>    8.9386    0.0000 </r>
       <r>    9.0059    0.0000 </r>
       <r>    9.1304    0.0000 </r>
       <r>    9.1304    0.0000 </r>
       <r>    9.1960    0.0000 </r>
       <r>    9.7359    0.0000 </r>
       <r>   10.0485    0.0000 </r>
       <r>   10.0485    0.0000 </r>
       <r>   10.2724    0.0000 </r>
       <r>   10.7587    0.0000 </r>
       <r>   10.7763    0.0000 </r>
       <r>   10.7763    0.0000 </r>
       <r>   10.8683    0.0000 </r>
       <r>   11.6962    0.0000 </r>
      </set>
      <set comment="kpoint 4">
       <r>  -29.3877    1.0000 </r>
       <r>  -29.1237    1.0000 </r>
       <r>  -29.1174    1.0000 </r>
       <r>  -29.1170    1.0000 </r>
       <r>  -29.0056    1.0000 </r>
       <r>  -29.0032    1.0000 </r>
       <r>  -28.8234    1.0000 </r>
       <r>  -28.8231    1.0000 </r>
       <r>  -28.8203    1.0000 </r>
       <r>  -28.8182    1.0000 </r>
       <r>  -28.8096    1.0000 </r>
       <r>  -28.8049    1.0000 </r>
       <r>  -11.6919    1.0000 </r>
       <r>  -11.6860    1.0000 </r>
       <r>  -11.6860    1.0000 </r>
       <r>  -11.4775    1.0000 </r>
       <r>  -11.4773    1.0000 </r>
       <r>   -8.5980    1.0000 </r>
       <r>   -8.2669    1.0000 </r>
       <r>   -8.2008    1.0000 </r>
       <r>   -7.6931    1.0000 </r>
       <r>   -7.4912    1.0000 </r>
       <r>   -7.1513    1.0000 </r>
       <r>   -7.1344    1.0000 </r>
       <r>   -7.1042    1.0000 </r>
       <r>   -1.4500    1.0000 </r>
       <r>   -0.3366    1.0000 </r>
       <r>   -0.2056    1.0000 </r>
       <r>    0.1303    1.0000 </r>
       <r>    0.4807    1.0000 </r>
       <r>    0.5253    1.0000 </r>
       <r>    0.8250    1.0000 </r>
       <r>    1.0625    1.0000 </r>
       <r>    1.1873    1.0000 </r>
       <r>    1.4523    1.0000 </r>
       <r>    1.5788    1.0000 </r>
       <r>    2.0558    1.0000 </r>
       <r>    2.1490    1.0000 </r>
       <r>    2.4082    1.0000 </r>
       <r>    2.4095    1.0000 </r>
       <r>    2.6601    1.0000 </r>
       <r>    2.6808    1.0000 </r>
       <r>    2.9635    1.0000 </r>
       <r>    3.2572    1.0000 </r>
       <r>    3.3403    1.0000 </r>
       <r>    3.5262    1.0000 </r>
       <r>    3.6913    1.0000 </r>
       <r>    4.0585    1.0000 </r>
       <r>    4.2536    1.0000 </r>
       <r>    4.8512    1.0000 </r>
       <r>    5.6063    1.0000 </r>
       <r>    5.6878    1.0000 </r>
       <r>    6.3124    0.6761 </r>
       <r>    6.6581    0.0000 </r>
       <r>    6.6771    0.0000 </r>
       <r>    7.8880    0.0000 </r>
       <r>    8.5431    0.0000 </r>
       <r>    8.5727    0.0000 </r>
       <r>    8.7723    0.0000 </r>
       <r>    9.0781    0.0000 </r>
       <r>    9.2678    0.0000 </r>
       <r>    9.3178    0.0000 </r>
       <r>    9.3567    0.0000 </r>
       <r>    9.4526    0.0000 </r>
       <r>    9.9248    0.0000 </r>
       <r>    9.9769    0.0000 </r>
       <r>   10.2188    0.0000 </r>
       <r>   10.5500    0.0000 </r>
       <r>   10.8533    0.0000 </r>
       <r>   11.4068    0.0000 </r>
       <r>   11.4365    0.0000 </r>
       <r>   11.9845    0.0000 </r>
      </set>
     </set>
     <set comment="spin 2">
      <set comment="kpoint 1">
       <r>  -29.3978    1.0000 </r>
       <r>  -29.1201    1.0000 </r>
       <r>  -29.1201    1.0000 </r>
       <r>  -29.1201    1.0000 </r>
       <r>  -29.0006    1.0000 </r>
       <r>  -29.0006    1.0000 </r>
       <r>  -28.8116    1.0000 </r>
       <r>  -28.8116    1.0000 </r>
       <r>  -28.8116    1.0000 </r>
       <r>  -28.7958    1.0000 </r>
       <r>  -28.7958    1.0000 </r>
       <r>  -28.7958    1.0000 </r>
       <r>  -11.6859    1.0000 </r>
       <r>  -11.6859    1.0000 </r>
       <r>  -11.6859    1.0000 </r>
       <r>  -11.4767    1.0000 </r>
       <r>  -11.4767    1.0000 </r>
       <r>   -9.5371    1.0000 </r>
       <r>   -7.7378    1.0000 </r>
       <r>   -7.4160    1.0000 </r>
       <r>   -7.4160    1.0000 </r>
       <r>   -7.4160    1.0000 </r>
       <r>   -7.1836    1.0000 </r>
       <r>   -7.1836    1.0000 </r>
       <r>   -7.1836    1.0000 </r>
       <r>   -2.8502    1.0000 </r>
       <r>   -1.0313    1.0000 </r>
       <r>   -1.0313    1.0000 </r>
       <r>   -1.0313    1.0000 </r>
       <r>   -0.4057    1.0000 </r>
       <r>    0.6038    1.0000 </r>
       <r>    0.6038    1.0000 </r>
       <r>    2.4593    1.0000 </r>
       <r>    2.4593    1.0000 </r>
       <r>    2.4593    1.0000 </r>
       <r>    2.6816    1.0000 </r>
       <r>    2.6816    1.0000 </r>
       <r>    2.6816    1.0000 </r>
       <r>    2.9570    1.0000 </r>
       <r>    2.9570    1.0000 </r>
       <r>    3.0723    1.0000 </r>
       <r>    3.0723    1.0000 </r>
       <r>    3.0723    1.0000 </r>
       <r>    3.4111    1.0000 </r>
       <r>    3.6457    1.0000 </r>
       <r>    3.6457    1.0000 </r>
       <r>    3.6457    1.0000 </r>
       <r>    4.8681    1.0000 </r>
       <r>    4.8681    1.0000 </r>
       <r>    5.0359    1.0000 </r>
       <r>    5.0359    1.0000 </r>
       <r>    5.0359    1.0000 </r>
       <r>    6.3981    0.0245 </r>
       <r>    6.3981    0.0244 </r>
       <r>    6.3981    0.0244 </r>
       <r>    7.1345    0.0000 </r>
       <r>    8.6898    0.0000 </r>
       <r>    8.6898    0.0000 </r>
       <r>    8.6898    0.0000 </r>
       <r>    8.9552    0.0000 </r>
       <r>    8.9552    0.0000 </r>
       <r>    8.9552    0.0000 </r>
       <r>    9.4174    0.0000 </r>
       <r>    9.4174    0.0000 </r>
       <r>    9.4174    0.0000 </r>
       <r>    9.8520    0.0000 </r>
       <r>    9.8520    0.0000 </r>
       <r>    9.8630    0.0000 </r>
       <r>    9.8630    0.0000 </r>
       <r>    9.8630    0.0000 </r>
       <r>   10.1404    0.0000 </r>
       <r>   11.2500    0.0000 </r>
      </set>
      <set comment="kpoint 2">
       <r>  -29.3882    1.0000 </r>
       <r>  -29.1179    1.0000 </r>
       <r>  -29.1154    1.0000 </r>
       <r>  -29.1154    1.0000 </r>
       <r>  -28.9994    1.0000 </r>
       <r>  -28.9994    1.0000 </r>
       <r>  -28.8164    1.0000 </r>
       <r>  -28.8164    1.0000 </r>
       <r>  -28.8116    1.0000 </r>
       <r>  -28.8093    1.0000 </r>
       <r>  -28.7973    1.0000 </r>
       <r>  -28.7973    1.0000 </r>
       <r>  -11.6893    1.0000 </r>
       <r>  -11.6856    1.0000 </r>
       <r>  -11.6856    1.0000 </r>
       <r>  -11.4768    1.0000 </r>
       <r>  -11.4768    1.0000 </r>
       <r>   -9.1360    1.0000 </r>
       <r>   -8.1155    1.0000 </r>
       <r>   -7.7737    1.0000 </r>
       <r>   -7.4326    1.0000 </r>
       <r>   -7.4326    1.0000 </r>
       <r>   -7.1806    1.0000 </r>
       <r>   -7.1806    1.0000 </r>
       <r>   -7.1603    1.0000 </r>
       <r>   -2.1304    1.0000 </r>
       <r>   -0.4830    1.0000 </r>
       <r>   -0.4830    1.0000 </r>
       <r>   -0.4480    1.0000 </r>
       <r>    0.0730    1.0000 </r>
       <r>    0.5452    1.0000 </r>
       <r>    0.5452    1.0000 </r>
       <r>    0.9384    1.0000 </r>
       <r>    1.6489    1.0000 </r>
       <r>    1.6489    1.0000 </r>
       <r>    2.3410    1.0000 </r>
       <r>    2.4715    1.0000 </r>
       <r>    2.4715    1.0000 </r>
       <r>    2.7585    1.0000 </r>
       <r>    2.7891    1.0000 </r>
       <r>    2.7891    1.0000 </r>
       <r>    2.9832    1.0000 </r>
       <r>    3.1481    1.0000 </r>
       <r>    3.1481    1.0000 </r>
       <r>    3.7265    1.0000 </r>
       <r>    3.7265    1.0000 </r>
       <r>    4.0761    1.0000 </r>
       <r>    4.2799    1.0000 </r>
       <r>    4.5680    1.0000 </r>
       <r>    4.5680    1.0000 </r>
       <r>    5.3938    1.0000 </r>
       <r>    5.3938    1.0000 </r>
       <r>    6.4736    0.0000 </r>
       <r>    6.6102    0.0000 </r>
       <r>    6.6102    0.0000 </r>
       <r>    7.2949    0.0000 </r>
       <r>    8.4886    0.0000 </r>
       <r>    8.4886    0.0000 </r>
       <r>    8.8456    0.0000 </r>
       <r>    8.9792    0.0000 </r>
       <r>    8.9792    0.0000 </r>
       <r>    9.3737    0.0000 </r>
       <r>    9.3737    0.0000 </r>
       <r>    9.5586    0.0000 </r>
       <r>    9.9028    0.0000 </r>
       <r>   10.1258    0.0000 </r>
       <r>   10.1258    0.0000 </r>
       <r>   10.4946    0.0000 </r>
       <r>   10.5691    0.0000 </r>
       <r>   10.6865    0.0000 </r>
       <r>   10.6865    0.0000 </r>
       <r>   11.3897    0.0000 </r>
      </set>
      <set comment="kpoint 3">
       <r>  -29.3848    1.0000 </r>
       <r>  -29.1205    1.0000 </r>
       <r>  -29.1122    1.0000 </r>
       <r>  -29.1122    1.0000 </r>
       <r>  -29.0015    1.0000 </r>
       <r>  -28.9967    1.0000 </r>
       <r>  -28.8165    1.0000 </r>
       <r>  -28.8165    1.0000 </r>
       <r>  -28.8156    1.0000 </r>
       <r>  -28.8095    1.0000 </r>
       <r>  -28.7994    1.0000 </r>
       <r>  -28.7994    1.0000 </r>
       <r>  -11.6902    1.0000 </r>
       <r>  -11.6854    1.0000 </r>
       <r>  -11.6854    1.0000 </r>
       <r>  -11.4770    1.0000 </r>
       <r>  -11.4767    1.0000 </r>
       <r>   -9.0175    1.0000 </r>
       <r>   -8.0230    1.0000 </r>
       <r>   -7.8170    1.0000 </r>
       <r>   -7.4870    1.0000 </r>
       <r>   -7.4870    1.0000 </r>
       <r>   -7.4279    1.0000 </r>
       <r>   -7.1434    1.0000 </r>
       <r>   -7.1434    1.0000 </r>
       <r>   -1.8729    1.0000 </r>
       <r>   -0.4618    1.0000 </r>
       <r>   -0.1475    1.0000 </r>
       <r>   -0.0742    1.0000 </r>
       <r>   -0.0742    1.0000 </r>
       <r>    0.7413    1.0000 </r>
       <r>    0.9048    1.0000 </r>
       <r>    0.9685    1.0000 </r>
       <r>    1.4785    1.0000 </r>
       <r>    1.4785    1.0000 </r>
       <r>    2.2226    1.0000 </r>
       <r>    2.3213    1.0000 </r>
       <r>    2.3213    1.0000 </r>
       <r>    2.3379    1.0000 </r>
       <r>    2.5260    1.0000 </r>
       <r>    2.8853    1.0000 </r>
       <r>    2.9189    1.0000 </r>
       <r>    2.9189    1.0000 </r>
       <r>    3.0868    1.0000 </r>
       <r>    3.5136    1.0000 </r>
       <r>    3.6066    1.0000 </r>
       <r>    3.6066    1.0000 </r>
       <r>    4.3570    1.0000 </r>
       <r>    4.3570    1.0000 </r>
       <r>    4.3858    1.0000 </r>
       <r>    5.4672    1.0000 </r>
       <r>    5.7127    1.0000 </r>
       <r>    6.0056    1.0000 </r>
       <r>    6.8496    0.0000 </r>
       <r>    6.8496    0.0000 </r>
       <r>    8.0855    0.0000 </r>
       <r>    8.4221    0.0000 </r>
       <r>    8.4221    0.0000 </r>
       <r>    8.9443    0.0000 </r>
       <r>    9.0146    0.0000 </r>
       <r>    9.1402    0.0000 </r>
       <r>    9.1402    0.0000 </r>
       <r>    9.2016    0.0000 </r>
       <r>    9.7430    0.0000 </r>
       <r>   10.0569    0.0000 </r>
       <r>   10.0569    0.0000 </r>
       <r>   10.2774    0.0000 </r>
       <r>   10.7637    0.0000 </r>
       <r>   10.7821    0.0000 </r>
       <r>   10.7821    0.0000 </r>
       <r>   10.8723    0.0000 </r>
       <r>   11.6981    0.0000 </r>
      </set>
      <set comment="kpoint 4">
       <r>  -29.3814    1.0000 </r>
       <r>  -29.1179    1.0000 </r>
       <r>  -29.1117    1.0000 </r>
       <r>  -29.1113    1.0000 </r>
       <r>  -29.0000    1.0000 </r>
       <r>  -28.9976    1.0000 </r>
       <r>  -28.8180    1.0000 </r>
       <r>  -28.8176    1.0000 </r>
       <r>  -28.8148    1.0000 </r>
       <r>  -28.8124    1.0000 </r>
       <r>  -28.8037    1.0000 </r>
       <r>  -28.7991    1.0000 </r>
       <r>  -11.6912    1.0000 </r>
       <r>  -11.6854    1.0000 </r>
       <r>  -11.6854    1.0000 </r>
       <r>  -11.4769    1.0000 </r>
       <r>  -11.4767    1.0000 </r>
       <r>   -8.5961    1.0000 </r>
       <r>   -8.2654    1.0000 </r>
       <r>   -8.1994    1.0000 </r>
       <r>   -7.6919    1.0000 </r>
       <r>   -7.4900    1.0000 </r>
       <r>   -7.1504    1.0000 </r>
       <r>   -7.1335    1.0000 </r>
       <r>   -7.1033    1.0000 </r>
       <r>   -1.4478    1.0000 </r>
       <r>   -0.3330    1.0000 </r>
       <r>   -0.2009    1.0000 </r>
       <r>    0.1349    1.0000 </r>
       <r>    0.4844    1.0000 </r>
       <r>    0.5301    1.0000 </r>
       <r>    0.8287    1.0000 </r>
       <r>    1.0672    1.0000 </r>
       <r>    1.1911    1.0000 </r>
       <r>    1.4557    1.0000 </r>
       <r>    1.5826    1.0000 </r>
       <r>    2.0599    1.0000 </r>
       <r>    2.1524    1.0000 </r>
       <r>    2.4110    1.0000 </r>
       <r>    2.4140    1.0000 </r>
       <r>    2.6635    1.0000 </r>
       <r>    2.6843    1.0000 </r>
       <r>    2.9671    1.0000 </r>
       <r>    3.2606    1.0000 </r>
       <r>    3.3443    1.0000 </r>
       <r>    3.5289    1.0000 </r>
       <r>    3.6953    1.0000 </r>
       <r>    4.0616    1.0000 </r>
       <r>    4.2560    1.0000 </r>
       <r>    4.8597    1.0000 </r>
       <r>    5.6163    1.0000 </r>
       <r>    5.6987    1.0000 </r>
       <r>    6.3236    0.5554 </r>
       <r>    6.6697    0.0000 </r>
       <r>    6.6882    0.0000 </r>
       <r>    7.8951    0.0000 </r>
       <r>    8.5500    0.0000 </r>
       <r>    8.5784    0.0000 </r>
       <r>    8.7788    0.0000 </r>
       <r>    9.0855    0.0000 </r>
       <r>    9.2753    0.0000 </r>
       <r>    9.3251    0.0000 </r>
       <r>    9.3631    0.0000 </r>
       <r>    9.4612    0.0000 </r>
       <r>    9.9304    0.0000 </r>
       <r>    9.9853    0.0000 </r>
       <r>   10.2239    0.0000 </r>
       <r>   10.5551    0.0000 </r>
       <r>   10.8607    0.0000 </r>
       <r>   11.4107    0.0000 </r>
       <r>   11.4411    0.0000 </r>
       <r>   11.9903    0.0000 </r>
      </set>
     </set>
    </set>
   </array>
  </eigenvalues>
  <separator name="orbital magnetization" >
   <v name="MAGDIPOLOUT">      0.00000000      0.00000000      0.00000000</v>
  </separator>
  <dos>
   <i name="efermi">      6.32850511 </i>
   <total>
    <array>
     <dimension dim="1">gridpoints</dimension>
     <dimension dim="2">spin</dimension>
     <field>energy</field>
     <field>total</field>
     <field>integrated</field>
     <set>
      <set comment="spin 1">
       <r>   -31.4738     0.0000     0.0000 </r>
       <r>   -31.3220     0.0000     0.0000 </r>
       <r>   -31.1702     0.0000     0.0000 </r>
       <r>   -31.0185     0.0000     0.0000 </r>
       <r>   -30.8667     0.0000     0.0000 </r>
       <r>   -30.7149     0.0000     0.0000 </r>
       <r>   -30.5631     0.0000     0.0000 </r>
       <r>   -30.4113     0.0000     0.0000 </r>
       <r>   -30.2596     0.0000     0.0000 </r>
       <r>   -30.1078     0.0000     0.0000 </r>
       <r>   -29.9560     0.0000     0.0000 </r>
       <r>   -29.8042     0.0000     0.0000 </r>
       <r>   -29.6525     0.0000     0.0000 </r>
       <r>   -29.5007     0.0068     0.0010 </r>
       <r>   -29.3489     5.8037     0.8819 </r>
       <r>   -29.1971     1.0876     1.0470 </r>
       <r>   -29.0453    20.7735     4.2000 </r>
       <r>   -28.8936    12.4378     6.0878 </r>
       <r>   -28.7418    38.1097    11.8721 </r>
       <r>   -28.5900     0.8430    12.0000 </r>
       <r>   -28.4382     0.0000    12.0000 </r>
       <r>   -28.2864     0.0000    12.0000 </r>
       <r>   -28.1347     0.0000    12.0000 </r>
       <r>   -27.9829     0.0000    12.0000 </r>
       <r>   -27.8311     0.0000    12.0000 </r>
       <r>   -27.6793     0.0000    12.0000 </r>
       <r>   -27.5275     0.0000    12.0000 </r>
       <r>   -27.3758     0.0000    12.0000 </r>
       <r>   -27.2240     0.0000    12.0000 </r>
       <r>   -27.0722     0.0000    12.0000 </r>
       <r>   -26.9204     0.0000    12.0000 </r>
       <r>   -26.7686     0.0000    12.0000 </r>
       <r>   -26.6169     0.0000    12.0000 </r>
       <r>   -26.4651     0.0000    12.0000 </r>
       <r>   -26.3133     0.0000    12.0000 </r>
       <r>   -26.1615     0.0000    12.0000 </r>
       <r>   -26.0097     0.0000    12.0000 </r>
       <r>   -25.8580     0.0000    12.0000 </r>
       <r>   -25.7062     0.0000    12.0000 </r>
       <r>   -25.5544     0.0000    12.0000 </r>
       <r>   -25.4026     0.0000    12.0000 </r>
       <r>   -25.2509     0.0000    12.0000 </r>
       <r>   -25.0991     0.0000    12.0000 </r>
       <r>   -24.9473     0.0000    12.0000 </r>
       <r>   -24.7955     0.0000    12.0000 </r>
       <r>   -24.6437     0.0000    12.0000 </r>
       <r>   -24.4920     0.0000    12.0000 </r>
       <r>   -24.3402     0.0000    12.0000 </r>
       <r>   -24.1884     0.0000    12.0000 </r>
       <r>   -24.0366     0.0000    12.0000 </r>
       <r>   -23.8848     0.0000    12.0000 </r>
       <r>   -23.7331     0.0000    12.0000 </r>
       <r>   -23.5813     0.0000    12.0000 </r>
       <r>   -23.4295     0.0000    12.0000 </r>
       <r>   -23.2777     0.0000    12.0000 </r>
       <r>   -23.1259     0.0000    12.0000 </r>
       <r>   -22.9742     0.0000    12.0000 </r>
       <r>   -22.8224     0.0000    12.0000 </r>
       <r>   -22.6706     0.0000    12.0000 </r>
       <r>   -22.5188     0.0000    12.0000 </r>
       <r>   -22.3670     0.0000    12.0000 </r>
       <r>   -22.2153     0.0000    12.0000 </r>
       <r>   -22.0635     0.0000    12.0000 </r>
       <r>   -21.9117     0.0000    12.0000 </r>
       <r>   -21.7599     0.0000    12.0000 </r>
       <r>   -21.6081     0.0000    12.0000 </r>
       <r>   -21.4564     0.0000    12.0000 </r>
       <r>   -21.3046     0.0000    12.0000 </r>
       <r>   -21.1528     0.0000    12.0000 </r>
       <r>   -21.0010     0.0000    12.0000 </r>
       <r>   -20.8492     0.0000    12.0000 </r>
       <r>   -20.6975     0.0000    12.0000 </r>
       <r>   -20.5457     0.0000    12.0000 </r>
       <r>   -20.3939     0.0000    12.0000 </r>
       <r>   -20.2421     0.0000    12.0000 </r>
       <r>   -20.0904     0.0000    12.0000 </r>
       <r>   -19.9386     0.0000    12.0000 </r>
       <r>   -19.7868     0.0000    12.0000 </r>
       <r>   -19.6350     0.0000    12.0000 </r>
       <r>   -19.4832     0.0000    12.0000 </r>
       <r>   -19.3315     0.0000    12.0000 </r>
       <r>   -19.1797     0.0000    12.0000 </r>
       <r>   -19.0279     0.0000    12.0000 </r>
       <r>   -18.8761     0.0000    12.0000 </r>
       <r>   -18.7243     0.0000    12.0000 </r>
       <r>   -18.5726     0.0000    12.0000 </r>
       <r>   -18.4208     0.0000    12.0000 </r>
       <r>   -18.2690     0.0000    12.0000 </r>
       <r>   -18.1172     0.0000    12.0000 </r>
       <r>   -17.9654     0.0000    12.0000 </r>
       <r>   -17.8137     0.0000    12.0000 </r>
       <r>   -17.6619     0.0000    12.0000 </r>
       <r>   -17.5101     0.0000    12.0000 </r>
       <r>   -17.3583     0.0000    12.0000 </r>
       <r>   -17.2065     0.0000    12.0000 </r>
       <r>   -17.0548     0.0000    12.0000 </r>
       <r>   -16.9030     0.0000    12.0000 </r>
       <r>   -16.7512     0.0000    12.0000 </r>
       <r>   -16.5994     0.0000    12.0000 </r>
       <r>   -16.4476     0.0000    12.0000 </r>
       <r>   -16.2959     0.0000    12.0000 </r>
       <r>   -16.1441     0.0000    12.0000 </r>
       <r>   -15.9923     0.0000    12.0000 </r>
       <r>   -15.8405     0.0000    12.0000 </r>
       <r>   -15.6888     0.0000    12.0000 </r>
       <r>   -15.5370     0.0000    12.0000 </r>
       <r>   -15.3852     0.0000    12.0000 </r>
       <r>   -15.2334     0.0000    12.0000 </r>
       <r>   -15.0816     0.0000    12.0000 </r>
       <r>   -14.9299     0.0000    12.0000 </r>
       <r>   -14.7781     0.0000    12.0000 </r>
       <r>   -14.6263     0.0000    12.0000 </r>
       <r>   -14.4745     0.0000    12.0000 </r>
       <r>   -14.3227     0.0000    12.0000 </r>
       <r>   -14.1710     0.0000    12.0000 </r>
       <r>   -14.0192     0.0000    12.0000 </r>
       <r>   -13.8674     0.0000    12.0000 </r>
       <r>   -13.7156     0.0000    12.0000 </r>
       <r>   -13.5638     0.0000    12.0000 </r>
       <r>   -13.4121     0.0000    12.0000 </r>
       <r>   -13.2603     0.0000    12.0000 </r>
       <r>   -13.1085     0.0000    12.0000 </r>
       <r>   -12.9567     0.0000    12.0000 </r>
       <r>   -12.8049     0.0000    12.0000 </r>
       <r>   -12.6532     0.0000    12.0000 </r>
       <r>   -12.5014     0.0000    12.0000 </r>
       <r>   -12.3496     0.0000    12.0000 </r>
       <r>   -12.1978     0.0000    12.0000 </r>
       <r>   -12.0460     0.0000    12.0000 </r>
       <r>   -11.8943     0.0000    12.0000 </r>
       <r>   -11.7425     1.2059    12.1830 </r>
       <r>   -11.5907    18.5073    14.9921 </r>
       <r>   -11.4389    11.4058    16.7232 </r>
       <r>   -11.2872     1.8235    17.0000 </r>
       <r>   -11.1354     0.0000    17.0000 </r>
       <r>   -10.9836     0.0000    17.0000 </r>
       <r>   -10.8318     0.0000    17.0000 </r>
       <r>   -10.6800     0.0000    17.0000 </r>
       <r>   -10.5283     0.0000    17.0000 </r>
       <r>   -10.3765     0.0000    17.0000 </r>
       <r>   -10.2247     0.0000    17.0000 </r>
       <r>   -10.0729     0.0000    17.0000 </r>
       <r>    -9.9211     0.0000    17.0000 </r>
       <r>    -9.7694     0.0000    17.0000 </r>
       <r>    -9.6176     0.0032    17.0005 </r>
       <r>    -9.4658     0.2361    17.0363 </r>
       <r>    -9.3140     0.0046    17.0370 </r>
       <r>    -9.1622     0.4808    17.1100 </r>
       <r>    -9.0105     2.3505    17.4668 </r>
       <r>    -8.8587     0.5849    17.5556 </r>
       <r>    -8.7069     0.0030    17.5560 </r>
       <r>    -8.5551     2.5950    17.9499 </r>
       <r>    -8.4033     0.3303    18.0000 </r>
       <r>    -8.2516     2.1762    18.3303 </r>
       <r>    -8.0998     5.0371    19.0949 </r>
       <r>    -7.9480     2.0366    19.4040 </r>
       <r>    -7.7962     1.6490    19.6543 </r>
       <r>    -7.6444     4.7145    20.3698 </r>
       <r>    -7.4927     3.2341    20.8607 </r>
       <r>    -7.3409     8.9330    22.2165 </r>
       <r>    -7.1891     3.3256    22.7213 </r>
       <r>    -7.0373    14.9129    24.9848 </r>
       <r>    -6.8856     0.1004    25.0000 </r>
       <r>    -6.7338     0.0000    25.0000 </r>
       <r>    -6.5820     0.0000    25.0000 </r>
       <r>    -6.4302     0.0000    25.0000 </r>
       <r>    -6.2784     0.0000    25.0000 </r>
       <r>    -6.1267     0.0000    25.0000 </r>
       <r>    -5.9749     0.0000    25.0000 </r>
       <r>    -5.8231     0.0000    25.0000 </r>
       <r>    -5.6713     0.0000    25.0000 </r>
       <r>    -5.5195     0.0000    25.0000 </r>
       <r>    -5.3678     0.0000    25.0000 </r>
       <r>    -5.2160     0.0000    25.0000 </r>
       <r>    -5.0642     0.0000    25.0000 </r>
       <r>    -4.9124     0.0000    25.0000 </r>
       <r>    -4.7606     0.0000    25.0000 </r>
       <r>    -4.6089     0.0000    25.0000 </r>
       <r>    -4.4571     0.0000    25.0000 </r>
       <r>    -4.3053     0.0000    25.0000 </r>
       <r>    -4.1535     0.0000    25.0000 </r>
       <r>    -4.0017     0.0000    25.0000 </r>
       <r>    -3.8500     0.0000    25.0000 </r>
       <r>    -3.6982     0.0000    25.0000 </r>
       <r>    -3.5464     0.0000    25.0000 </r>
       <r>    -3.3946     0.0000    25.0000 </r>
       <r>    -3.2428     0.0000    25.0000 </r>
       <r>    -3.0911     0.0000    25.0000 </r>
       <r>    -2.9393     0.0019    25.0003 </r>
       <r>    -2.7875     0.2347    25.0359 </r>
       <r>    -2.6357     0.0074    25.0370 </r>
       <r>    -2.4840     0.0000    25.0370 </r>
       <r>    -2.3322     0.0000    25.0370 </r>
       <r>    -2.1804     0.1803    25.0644 </r>
       <r>    -2.0286     1.7689    25.3329 </r>
       <r>    -1.8768     0.7194    25.4421 </r>
       <r>    -1.7251     0.7476    25.5556 </r>
       <r>    -1.5733     0.0007    25.5557 </r>
       <r>    -1.4215     2.3119    25.9066 </r>
       <r>    -1.2697     0.6156    26.0000 </r>
       <r>    -1.1179     0.0075    26.0011 </r>
       <r>    -0.9662     0.7070    26.1084 </r>
       <r>    -0.8144     0.0176    26.1111 </r>
       <r>    -0.6626     0.0000    26.1111 </r>
       <r>    -0.5108     1.2406    26.2994 </r>
       <r>    -0.3590     7.0642    27.3716 </r>
       <r>    -0.2073     3.6793    27.9301 </r>
       <r>    -0.0555     5.0754    28.7004 </r>
       <r>     0.0963     2.7735    29.1214 </r>
       <r>     0.2481     2.8594    29.5554 </r>
       <r>     0.3999     0.0346    29.5606 </r>
       <r>     0.5516     7.5308    30.7036 </r>
       <r>     0.7034     2.9363    31.1493 </r>
       <r>     0.8552     3.7357    31.7163 </r>
       <r>     1.0070     5.2470    32.5127 </r>
       <r>     1.1588     3.5716    33.0548 </r>
       <r>     1.3105     2.3226    33.4073 </r>
       <r>     1.4623     2.8317    33.8371 </r>
       <r>     1.6141     6.2245    34.7818 </r>
       <r>     1.7659     3.6322    35.3331 </r>
       <r>     1.9176     0.0014    35.3334 </r>
       <r>     2.0694     1.9391    35.6277 </r>
       <r>     2.2212     4.6598    36.3349 </r>
       <r>     2.3730     7.3279    37.4472 </r>
       <r>     2.5248    10.7665    39.0813 </r>
       <r>     2.6765     4.6156    39.7819 </r>
       <r>     2.8283     8.3796    41.0537 </r>
       <r>     2.9801     8.0399    42.2740 </r>
       <r>     3.1319     5.5491    43.1162 </r>
       <r>     3.2837     5.0731    43.8862 </r>
       <r>     3.4354     3.6692    44.4431 </r>
       <r>     3.5872     5.2319    45.2372 </r>
       <r>     3.7390     8.1057    46.4675 </r>
       <r>     3.8908     1.5562    46.7037 </r>
       <r>     4.0426     1.3293    46.9055 </r>
       <r>     4.1943     3.7189    47.4699 </r>
       <r>     4.3461     6.1636    48.4054 </r>
       <r>     4.4979     3.0540    48.8690 </r>
       <r>     4.6497     3.7594    49.4395 </r>
       <r>     4.8015     0.2926    49.4840 </r>
       <r>     4.9532     3.1569    49.9631 </r>
       <r>     5.1050     0.7152    50.0717 </r>
       <r>     5.2568     0.0166    50.0742 </r>
       <r>     5.4086     3.0830    50.5421 </r>
       <r>     5.5604     2.5657    50.9315 </r>
       <r>     5.7121     5.7452    51.8035 </r>
       <r>     5.8639     1.2946    52.0000 </r>
       <r>     6.0157     1.0628    52.1613 </r>
       <r>     6.1675     0.4012    52.2222 </r>
       <r>     6.3192     1.7108    52.4819 </r>
       <r>     6.4710     3.1011    52.9526 </r>
       <r>     6.6228     4.3812    53.6176 </r>
       <r>     6.7746     6.2762    54.5701 </r>
       <r>     6.9264     2.8137    54.9972 </r>
       <r>     7.0781     0.0364    55.0027 </r>
       <r>     7.2299     0.3177    55.0510 </r>
       <r>     7.3817     1.8518    55.3320 </r>
       <r>     7.5335     0.0086    55.3333 </r>
       <r>     7.6853     0.0000    55.3333 </r>
       <r>     7.8370     0.2191    55.3666 </r>
       <r>     7.9888     2.7099    55.7779 </r>
       <r>     8.1406     1.3994    55.9903 </r>
       <r>     8.2924     0.0645    56.0001 </r>
       <r>     8.4442     2.8908    56.4389 </r>
       <r>     8.5959     8.8558    57.7830 </r>
       <r>     8.7477     2.3709    58.1428 </r>
       <r>     8.8995     4.4383    58.8165 </r>
       <r>     9.0513     7.8028    60.0008 </r>
       <r>     9.2031     6.2529    60.9499 </r>
       <r>     9.3548     8.9671    62.3109 </r>
       <r>     9.5066     7.9899    63.5236 </r>
       <r>     9.6584     1.9376    63.8177 </r>
       <r>     9.8102     1.5749    64.0567 </r>
       <r>     9.9620     6.4864    65.0412 </r>
       <r>    10.1137     6.9601    66.0976 </r>
       <r>    10.2655     5.8045    66.9786 </r>
       <r>    10.4173     1.1589    67.1545 </r>
       <r>    10.5691     5.0570    67.9220 </r>
       <r>    10.7208     5.5212    68.7600 </r>
       <r>    10.8726     7.3727    69.8791 </r>
       <r>    11.0244     1.5288    70.1111 </r>
       <r>    11.1762     0.0061    70.1120 </r>
       <r>    11.3280     0.5332    70.1930 </r>
       <r>    11.4797     7.1309    71.2753 </r>
       <r>    11.6315     0.4317    71.3408 </r>
       <r>    11.7833     1.4048    71.5540 </r>
       <r>    11.9351     0.2481    71.5917 </r>
       <r>    12.0869     2.6846    71.9992 </r>
       <r>    12.2386     0.0055    72.0000 </r>
       <r>    12.3904     0.0000    72.0000 </r>
       <r>    12.5422     0.0000    72.0000 </r>
       <r>    12.6940     0.0000    72.0000 </r>
       <r>    12.8458     0.0000    72.0000 </r>
       <r>    12.9975     0.0000    72.0000 </r>
       <r>    13.1493     0.0000    72.0000 </r>
       <r>    13.3011     0.0000    72.0000 </r>
       <r>    13.4529     0.0000    72.0000 </r>
       <r>    13.6047     0.0000    72.0000 </r>
       <r>    13.7564     0.0000    72.0000 </r>
       <r>    13.9082     0.0000    72.0000 </r>
       <r>    14.0600     0.0000    72.0000 </r>
      </set>
      <set comment="spin 2">
       <r>   -31.4738     0.0000     0.0000 </r>
       <r>   -31.3220     0.0000     0.0000 </r>
       <r>   -31.1702     0.0000     0.0000 </r>
       <r>   -31.0185     0.0000     0.0000 </r>
       <r>   -30.8667     0.0000     0.0000 </r>
       <r>   -30.7149     0.0000     0.0000 </r>
       <r>   -30.5631     0.0000     0.0000 </r>
       <r>   -30.4113     0.0000     0.0000 </r>
       <r>   -30.2596     0.0000     0.0000 </r>
       <r>   -30.1078     0.0000     0.0000 </r>
       <r>   -29.9560     0.0000     0.0000 </r>
       <r>   -29.8042     0.0000     0.0000 </r>
       <r>   -29.6525     0.0000     0.0000 </r>
       <r>   -29.5007     0.0037     0.0006 </r>
       <r>   -29.3489     5.5529     0.8434 </r>
       <r>   -29.1971     1.2357     1.0309 </r>
       <r>   -29.0453    20.3313     4.1168 </r>
       <r>   -28.8936    12.7821     6.0569 </r>
       <r>   -28.7418    37.9386    11.8152 </r>
       <r>   -28.5900     1.2178    12.0000 </r>
       <r>   -28.4382     0.0000    12.0000 </r>
       <r>   -28.2864     0.0000    12.0000 </r>
       <r>   -28.1347     0.0000    12.0000 </r>
       <r>   -27.9829     0.0000    12.0000 </r>
       <r>   -27.8311     0.0000    12.0000 </r>
       <r>   -27.6793     0.0000    12.0000 </r>
       <r>   -27.5275     0.0000    12.0000 </r>
       <r>   -27.3758     0.0000    12.0000 </r>
       <r>   -27.2240     0.0000    12.0000 </r>
       <r>   -27.0722     0.0000    12.0000 </r>
       <r>   -26.9204     0.0000    12.0000 </r>
       <r>   -26.7686     0.0000    12.0000 </r>
       <r>   -26.6169     0.0000    12.0000 </r>
       <r>   -26.4651     0.0000    12.0000 </r>
       <r>   -26.3133     0.0000    12.0000 </r>
       <r>   -26.1615     0.0000    12.0000 </r>
       <r>   -26.0097     0.0000    12.0000 </r>
       <r>   -25.8580     0.0000    12.0000 </r>
       <r>   -25.7062     0.0000    12.0000 </r>
       <r>   -25.5544     0.0000    12.0000 </r>
       <r>   -25.4026     0.0000    12.0000 </r>
       <r>   -25.2509     0.0000    12.0000 </r>
       <r>   -25.0991     0.0000    12.0000 </r>
       <r>   -24.9473     0.0000    12.0000 </r>
       <r>   -24.7955     0.0000    12.0000 </r>
       <r>   -24.6437     0.0000    12.0000 </r>
       <r>   -24.4920     0.0000    12.0000 </r>
       <r>   -24.3402     0.0000    12.0000 </r>
       <r>   -24.1884     0.0000    12.0000 </r>
       <r>   -24.0366     0.0000    12.0000 </r>
       <r>   -23.8848     0.0000    12.0000 </r>
       <r>   -23.7331     0.0000    12.0000 </r>
       <r>   -23.5813     0.0000    12.0000 </r>
       <r>   -23.4295     0.0000    12.0000 </r>
       <r>   -23.2777     0.0000    12.0000 </r>
       <r>   -23.1259     0.0000    12.0000 </r>
       <r>   -22.9742     0.0000    12.0000 </r>
       <r>   -22.8224     0.0000    12.0000 </r>
       <r>   -22.6706     0.0000    12.0000 </r>
       <r>   -22.5188     0.0000    12.0000 </r>
       <r>   -22.3670     0.0000    12.0000 </r>
       <r>   -22.2153     0.0000    12.0000 </r>
       <r>   -22.0635     0.0000    12.0000 </r>
       <r>   -21.9117     0.0000    12.0000 </r>
       <r>   -21.7599     0.0000    12.0000 </r>
       <r>   -21.6081     0.0000    12.0000 </r>
       <r>   -21.4564     0.0000    12.0000 </r>
       <r>   -21.3046     0.0000    12.0000 </r>
       <r>   -21.1528     0.0000    12.0000 </r>
       <r>   -21.0010     0.0000    12.0000 </r>
       <r>   -20.8492     0.0000    12.0000 </r>
       <r>   -20.6975     0.0000    12.0000 </r>
       <r>   -20.5457     0.0000    12.0000 </r>
       <r>   -20.3939     0.0000    12.0000 </r>
       <r>   -20.2421     0.0000    12.0000 </r>
       <r>   -20.0904     0.0000    12.0000 </r>
       <r>   -19.9386     0.0000    12.0000 </r>
       <r>   -19.7868     0.0000    12.0000 </r>
       <r>   -19.6350     0.0000    12.0000 </r>
       <r>   -19.4832     0.0000    12.0000 </r>
       <r>   -19.3315     0.0000    12.0000 </r>
       <r>   -19.1797     0.0000    12.0000 </r>
       <r>   -19.0279     0.0000    12.0000 </r>
       <r>   -18.8761     0.0000    12.0000 </r>
       <r>   -18.7243     0.0000    12.0000 </r>
       <r>   -18.5726     0.0000    12.0000 </r>
       <r>   -18.4208     0.0000    12.0000 </r>
       <r>   -18.2690     0.0000    12.0000 </r>
       <r>   -18.1172     0.0000    12.0000 </r>
       <r>   -17.9654     0.0000    12.0000 </r>
       <r>   -17.8137     0.0000    12.0000 </r>
       <r>   -17.6619     0.0000    12.0000 </r>
       <r>   -17.5101     0.0000    12.0000 </r>
       <r>   -17.3583     0.0000    12.0000 </r>
       <r>   -17.2065     0.0000    12.0000 </r>
       <r>   -17.0548     0.0000    12.0000 </r>
       <r>   -16.9030     0.0000    12.0000 </r>
       <r>   -16.7512     0.0000    12.0000 </r>
       <r>   -16.5994     0.0000    12.0000 </r>
       <r>   -16.4476     0.0000    12.0000 </r>
       <r>   -16.2959     0.0000    12.0000 </r>
       <r>   -16.1441     0.0000    12.0000 </r>
       <r>   -15.9923     0.0000    12.0000 </r>
       <r>   -15.8405     0.0000    12.0000 </r>
       <r>   -15.6888     0.0000    12.0000 </r>
       <r>   -15.5370     0.0000    12.0000 </r>
       <r>   -15.3852     0.0000    12.0000 </r>
       <r>   -15.2334     0.0000    12.0000 </r>
       <r>   -15.0816     0.0000    12.0000 </r>
       <r>   -14.9299     0.0000    12.0000 </r>
       <r>   -14.7781     0.0000    12.0000 </r>
       <r>   -14.6263     0.0000    12.0000 </r>
       <r>   -14.4745     0.0000    12.0000 </r>
       <r>   -14.3227     0.0000    12.0000 </r>
       <r>   -14.1710     0.0000    12.0000 </r>
       <r>   -14.0192     0.0000    12.0000 </r>
       <r>   -13.8674     0.0000    12.0000 </r>
       <r>   -13.7156     0.0000    12.0000 </r>
       <r>   -13.5638     0.0000    12.0000 </r>
       <r>   -13.4121     0.0000    12.0000 </r>
       <r>   -13.2603     0.0000    12.0000 </r>
       <r>   -13.1085     0.0000    12.0000 </r>
       <r>   -12.9567     0.0000    12.0000 </r>
       <r>   -12.8049     0.0000    12.0000 </r>
       <r>   -12.6532     0.0000    12.0000 </r>
       <r>   -12.5014     0.0000    12.0000 </r>
       <r>   -12.3496     0.0000    12.0000 </r>
       <r>   -12.1978     0.0000    12.0000 </r>
       <r>   -12.0460     0.0000    12.0000 </r>
       <r>   -11.8943     0.0000    12.0000 </r>
       <r>   -11.7425     1.1638    12.1766 </r>
       <r>   -11.5907    18.5455    14.9915 </r>
       <r>   -11.4389    11.3624    16.7160 </r>
       <r>   -11.2872     1.8709    17.0000 </r>
       <r>   -11.1354     0.0000    17.0000 </r>
       <r>   -10.9836     0.0000    17.0000 </r>
       <r>   -10.8318     0.0000    17.0000 </r>
       <r>   -10.6800     0.0000    17.0000 </r>
       <r>   -10.5283     0.0000    17.0000 </r>
       <r>   -10.3765     0.0000    17.0000 </r>
       <r>   -10.2247     0.0000    17.0000 </r>
       <r>   -10.0729     0.0000    17.0000 </r>
       <r>    -9.9211     0.0000    17.0000 </r>
       <r>    -9.7694     0.0000    17.0000 </r>
       <r>    -9.6176     0.0028    17.0004 </r>
       <r>    -9.4658     0.2359    17.0362 </r>
       <r>    -9.3140     0.0053    17.0370 </r>
       <r>    -9.1622     0.4466    17.1048 </r>
       <r>    -9.0105     2.3533    17.4620 </r>
       <r>    -8.8587     0.6164    17.5556 </r>
       <r>    -8.7069     0.0025    17.5559 </r>
       <r>    -8.5551     2.5651    17.9453 </r>
       <r>    -8.4033     0.3607    18.0000 </r>
       <r>    -8.2516     2.1141    18.3209 </r>
       <r>    -8.0998     5.0675    19.0900 </r>
       <r>    -7.9480     2.0663    19.4037 </r>
       <r>    -7.7962     1.6098    19.6480 </r>
       <r>    -7.6444     4.7392    20.3673 </r>
       <r>    -7.4927     3.1533    20.8459 </r>
       <r>    -7.3409     9.0269    22.2160 </r>
       <r>    -7.1891     3.2261    22.7057 </r>
       <r>    -7.0373    15.0096    24.9838 </r>
       <r>    -6.8856     0.1067    25.0000 </r>
       <r>    -6.7338     0.0000    25.0000 </r>
       <r>    -6.5820     0.0000    25.0000 </r>
       <r>    -6.4302     0.0000    25.0000 </r>
       <r>    -6.2784     0.0000    25.0000 </r>
       <r>    -6.1267     0.0000    25.0000 </r>
       <r>    -5.9749     0.0000    25.0000 </r>
       <r>    -5.8231     0.0000    25.0000 </r>
       <r>    -5.6713     0.0000    25.0000 </r>
       <r>    -5.5195     0.0000    25.0000 </r>
       <r>    -5.3678     0.0000    25.0000 </r>
       <r>    -5.2160     0.0000    25.0000 </r>
       <r>    -5.0642     0.0000    25.0000 </r>
       <r>    -4.9124     0.0000    25.0000 </r>
       <r>    -4.7606     0.0000    25.0000 </r>
       <r>    -4.6089     0.0000    25.0000 </r>
       <r>    -4.4571     0.0000    25.0000 </r>
       <r>    -4.3053     0.0000    25.0000 </r>
       <r>    -4.1535     0.0000    25.0000 </r>
       <r>    -4.0017     0.0000    25.0000 </r>
       <r>    -3.8500     0.0000    25.0000 </r>
       <r>    -3.6982     0.0000    25.0000 </r>
       <r>    -3.5464     0.0000    25.0000 </r>
       <r>    -3.3946     0.0000    25.0000 </r>
       <r>    -3.2428     0.0000    25.0000 </r>
       <r>    -3.0911     0.0000    25.0000 </r>
       <r>    -2.9393     0.0014    25.0002 </r>
       <r>    -2.7875     0.2333    25.0356 </r>
       <r>    -2.6357     0.0093    25.0370 </r>
       <r>    -2.4840     0.0000    25.0370 </r>
       <r>    -2.3322     0.0000    25.0370 </r>
       <r>    -2.1804     0.1539    25.0604 </r>
       <r>    -2.0286     1.7944    25.3327 </r>
       <r>    -1.8768     0.6709    25.4346 </r>
       <r>    -1.7251     0.7971    25.5556 </r>
       <r>    -1.5733     0.0006    25.5556 </r>
       <r>    -1.4215     2.2575    25.8983 </r>
       <r>    -1.2697     0.6701    26.0000 </r>
       <r>    -1.1179     0.0052    26.0008 </r>
       <r>    -0.9662     0.7029    26.1075 </r>
       <r>    -0.8144     0.0239    26.1111 </r>
       <r>    -0.6626     0.0000    26.1111 </r>
       <r>    -0.5108     1.0379    26.2686 </r>
       <r>    -0.3590     7.1638    27.3560 </r>
       <r>    -0.2073     3.6121    27.9042 </r>
       <r>    -0.0555     5.1203    28.6813 </r>
       <r>     0.0963     2.7367    29.0967 </r>
       <r>     0.2481     3.0210    29.5553 </r>
       <r>     0.3999     0.0270    29.5594 </r>
       <r>     0.5516     7.2205    30.6553 </r>
       <r>     0.7034     3.2103    31.1425 </r>
       <r>     0.8552     3.6557    31.6974 </r>
       <r>     1.0070     5.2830    32.4992 </r>
       <r>     1.1588     3.5694    33.0410 </r>
       <r>     1.3105     2.4130    33.4073 </r>
       <r>     1.4623     2.6286    33.8062 </r>
       <r>     1.6141     6.2460    34.7542 </r>
       <r>     1.7659     3.8135    35.3331 </r>
       <r>     1.9176     0.0019    35.3333 </r>
       <r>     2.0694     1.8032    35.6070 </r>
       <r>     2.2212     4.6955    36.3197 </r>
       <r>     2.3730     7.1540    37.4055 </r>
       <r>     2.5248    10.9326    39.0649 </r>
       <r>     2.6765     4.4770    39.7444 </r>
       <r>     2.8283     8.5290    41.0389 </r>
       <r>     2.9801     7.8998    42.2380 </r>
       <r>     3.1319     5.6146    43.0901 </r>
       <r>     3.2837     5.1252    43.8680 </r>
       <r>     3.4354     3.7549    44.4380 </r>
       <r>     3.5872     5.1556    45.2205 </r>
       <r>     3.7390     8.0407    46.4409 </r>
       <r>     3.8908     1.7316    46.7037 </r>
       <r>     4.0426     1.1991    46.8857 </r>
       <r>     4.1943     3.8142    47.4646 </r>
       <r>     4.3461     5.9747    48.3715 </r>
       <r>     4.4979     3.2562    48.8657 </r>
       <r>     4.6497     3.7724    49.4382 </r>
       <r>     4.8015     0.2010    49.4687 </r>
       <r>     4.9532     3.2474    49.9616 </r>
       <r>     5.1050     0.7223    50.0713 </r>
       <r>     5.2568     0.0187    50.0741 </r>
       <r>     5.4086     2.6571    50.4774 </r>
       <r>     5.5604     2.8709    50.9131 </r>
       <r>     5.7121     5.3776    51.7294 </r>
       <r>     5.8639     1.7832    52.0000 </r>
       <r>     6.0157     0.8968    52.1361 </r>
       <r>     6.1675     0.5673    52.2222 </r>
       <r>     6.3192     1.3307    52.4242 </r>
       <r>     6.4710     3.2355    52.9153 </r>
       <r>     6.6228     3.9084    53.5085 </r>
       <r>     6.7746     6.9224    54.5592 </r>
       <r>     6.9264     2.8605    54.9933 </r>
       <r>     7.0781     0.0575    55.0021 </r>
       <r>     7.2299     0.2940    55.0467 </r>
       <r>     7.3817     1.8749    55.3312 </r>
       <r>     7.5335     0.0138    55.3333 </r>
       <r>     7.6853     0.0000    55.3333 </r>
       <r>     7.8370     0.1473    55.3557 </r>
       <r>     7.9888     2.7738    55.7767 </r>
       <r>     8.1406     1.3842    55.9868 </r>
       <r>     8.2924     0.0874    56.0001 </r>
       <r>     8.4442     2.5596    56.3886 </r>
       <r>     8.5959     8.9356    57.7448 </r>
       <r>     8.7477     2.4496    58.1166 </r>
       <r>     8.8995     4.4711    58.7952 </r>
       <r>     9.0513     7.6502    59.9563 </r>
       <r>     9.2031     6.3619    60.9219 </r>
       <r>     9.3548     8.3799    62.1939 </r>
       <r>     9.5066     8.5692    63.4945 </r>
       <r>     9.6584     2.1180    63.8160 </r>
       <r>     9.8102     1.5312    64.0484 </r>
       <r>     9.9620     6.1432    64.9808 </r>
       <r>    10.1137     7.0682    66.0536 </r>
       <r>    10.2655     5.9357    66.9545 </r>
       <r>    10.4173     1.3042    67.1524 </r>
       <r>    10.5691     4.7807    67.8781 </r>
       <r>    10.7208     5.5674    68.7231 </r>
       <r>    10.8726     7.3263    69.8350 </r>
       <r>    11.0244     1.8188    70.1111 </r>
       <r>    11.1762     0.0045    70.1118 </r>
       <r>    11.3280     0.3451    70.1642 </r>
       <r>    11.4797     7.2157    71.2594 </r>
       <r>    11.6315     0.5310    71.3400 </r>
       <r>    11.7833     1.4087    71.5538 </r>
       <r>    11.9351     0.1852    71.5819 </r>
       <r>    12.0869     2.7455    71.9986 </r>
       <r>    12.2386     0.0092    72.0000 </r>
       <r>    12.3904     0.0000    72.0000 </r>
       <r>    12.5422     0.0000    72.0000 </r>
       <r>    12.6940     0.0000    72.0000 </r>
       <r>    12.8458     0.0000    72.0000 </r>
       <r>    12.9975     0.0000    72.0000 </r>
       <r>    13.1493     0.0000    72.0000 </r>
       <r>    13.3011     0.0000    72.0000 </r>
       <r>    13.4529     0.0000    72.0000 </r>
       <r>    13.6047     0.0000    72.0000 </r>
       <r>    13.7564     0.0000    72.0000 </r>
       <r>    13.9082     0.0000    72.0000 </r>
       <r>    14.0600     0.0000    72.0000 </r>
      </set>
     </set>
    </array>
   </total>
  </dos>
 </calculation>
 <structure name="finalpos" >
  <crystal>
   <varray name="basis" >
    <v>       0.00000000       4.99700000       4.99700000 </v>
    <v>       4.99700000       0.00000000       4.99700000 </v>
    <v>       4.99700000       4.99700000       0.00000000 </v>
   </varray>
   <i name="volume">    249.55026995 </i>
   <varray name="rec_basis" >
    <v>      -0.10006004       0.10006004       0.10006004 </v>
    <v>       0.10006004      -0.10006004       0.10006004 </v>
    <v>       0.10006004       0.10006004      -0.10006004 </v>
   </varray>
  </crystal>
  <varray name="positions" >
   <v>       0.60360000       0.60360000       0.18920000 </v>
   <v>       0.60360000       0.18920000       0.60360000 </v>
   <v>       0.18920000       0.60360000       0.60360000 </v>
   <v>       0.60360000       0.60360000       0.60360000 </v>
   <v>       0.00000000       0.00000000       0.00000000 </v>
   <v>       0.36000000       0.36000000       0.92000000 </v>
   <v>       0.36000000       0.92000000       0.36000000 </v>
   <v>       0.92000000       0.36000000       0.36000000 </v>
   <v>       0.36000000       0.36000000       0.36000000 </v>
   <v>       0.86660000       0.86660000       0.40020000 </v>
   <v>       0.86660000       0.40020000       0.86660000 </v>
   <v>       0.40020000       0.86660000       0.86660000 </v>
   <v>       0.86660000       0.86660000       0.86660000 </v>
  </varray>
 </structure>
</modeling>
