BEGIN_INFO
# Launch as: xcrysden --bxsf xxx.bxsf
Fermi Energy:     6.350299
END_INFO

BEGIN_BLOCK_BANDGRID_3D
  band_energies
  BANDGRID_3D_BANDS
    2
        9    9    9
          0.00000000      0.00000000      0.00000000
         -0.10006004      0.10006004      0.10006004
          0.10006004     -0.10006004      0.10006004
          0.10006004      0.10006004     -0.10006004
    BAND:   -32
      6.39406400e+00  6.44496900e+00  6.50228300e+00  6.46948000e+00  6.40467100e+00  6.40467100e+00  6.46948000e+00  6.50228300e+00  6.44496900e+00
      6.44496900e+00  6.33891600e+00  6.34282000e+00  6.40116300e+00  6.42342000e+00  6.42093700e+00  6.47686600e+00  6.50879900e+00  6.45296800e+00
      6.50228300e+00  6.34282000e+00  6.18589000e+00  6.16935600e+00  6.25060700e+00  6.35315300e+00  6.44731400e+00  6.52568700e+00  6.50879900e+00
      6.46948000e+00  6.40116300e+00  6.16935600e+00  6.00126000e+00  6.00763600e+00  6.15055100e+00  6.31945700e+00  6.44731400e+00  6.47686600e+00
      6.40467100e+00  6.42342000e+00  6.25060700e+00  6.00763600e+00  5.86956800e+00  5.94089800e+00  6.15055100e+00  6.35315300e+00  6.42093700e+00
      6.40467100e+00  6.42093700e+00  6.35315300e+00  6.15055100e+00  5.94089800e+00  5.86956800e+00  6.00763600e+00  6.25060700e+00  6.42342000e+00
      6.46948000e+00  6.47686600e+00  6.44731400e+00  6.31945700e+00  6.15055100e+00  6.00763600e+00  6.00126000e+00  6.16935600e+00  6.40116300e+00
      6.50228300e+00  6.50879900e+00  6.52568700e+00  6.44731400e+00  6.35315300e+00  6.25060700e+00  6.16935600e+00  6.18589000e+00  6.34282000e+00
      6.44496900e+00  6.45296800e+00  6.50879900e+00  6.47686600e+00  6.42093700e+00  6.42342000e+00  6.40116300e+00  6.34282000e+00  6.33891600e+00
      6.44496900e+00  6.33891600e+00  6.34282000e+00  6.40116300e+00  6.42342000e+00  6.42093700e+00  6.47686600e+00  6.50879900e+00  6.45296800e+00
      6.33891600e+00  6.44496900e+00  6.45296800e+00  6.50879900e+00  6.47686600e+00  6.42093700e+00  6.42342000e+00  6.40116300e+00  6.34282000e+00
      6.34282000e+00  6.45296800e+00  6.34282000e+00  6.32471600e+00  6.37249100e+00  6.41252200e+00  6.41252200e+00  6.37249100e+00  6.32471600e+00
      6.40116300e+00  6.50879900e+00  6.32471600e+00  6.16935600e+00  6.15167400e+00  6.23905800e+00  6.35154100e+00  6.39485600e+00  6.37249100e+00
      6.42342000e+00  6.47686600e+00  6.37249100e+00  6.15167400e+00  6.00763600e+00  6.03135900e+00  6.18396100e+00  6.35154100e+00  6.41252200e+00
      6.42093700e+00  6.42093700e+00  6.41252200e+00  6.23905800e+00  6.03135900e+00  5.94089800e+00  6.03135900e+00  6.23905800e+00  6.41252200e+00
      6.47686600e+00  6.42342000e+00  6.41252200e+00  6.35154100e+00  6.18396100e+00  6.03135900e+00  6.00763600e+00  6.15167400e+00  6.37249100e+00
      6.50879900e+00  6.40116300e+00  6.37249100e+00  6.39485600e+00  6.35154100e+00  6.23905800e+00  6.15167400e+00  6.16935600e+00  6.32471600e+00
      6.45296800e+00  6.34282000e+00  6.32471600e+00  6.37249100e+00  6.41252200e+00  6.41252200e+00  6.37249100e+00  6.32471600e+00  6.34282000e+00
      6.50228300e+00  6.34282000e+00  6.18589000e+00  6.16935600e+00  6.25060700e+00  6.35315300e+00  6.44731400e+00  6.52568700e+00  6.50879900e+00
      6.34282000e+00  6.45296800e+00  6.34282000e+00  6.32471600e+00  6.37249100e+00  6.41252200e+00  6.41252200e+00  6.37249100e+00  6.32471600e+00
      6.18589000e+00  6.34282000e+00  6.50228300e+00  6.50879900e+00  6.52568700e+00  6.44731400e+00  6.35315300e+00  6.25060700e+00  6.16935600e+00
      6.16935600e+00  6.32471600e+00  6.50879900e+00  6.40116300e+00  6.37249100e+00  6.39485600e+00  6.35154100e+00  6.23905800e+00  6.15167400e+00
      6.25060700e+00  6.37249100e+00  6.52568700e+00  6.37249100e+00  6.25060700e+00  6.23905800e+00  6.30284300e+00  6.30284300e+00  6.23905800e+00
      6.35315300e+00  6.41252200e+00  6.44731400e+00  6.39485600e+00  6.23905800e+00  6.15055100e+00  6.18396100e+00  6.30284300e+00  6.35154100e+00
      6.44731400e+00  6.41252200e+00  6.35315300e+00  6.35154100e+00  6.30284300e+00  6.18396100e+00  6.15055100e+00  6.23905800e+00  6.39485600e+00
      6.52568700e+00  6.37249100e+00  6.25060700e+00  6.23905800e+00  6.30284300e+00  6.30284300e+00  6.23905800e+00  6.25060700e+00  6.37249100e+00
      6.50879900e+00  6.32471600e+00  6.16935600e+00  6.15167400e+00  6.23905800e+00  6.35154100e+00  6.39485600e+00  6.37249100e+00  6.40116300e+00
      6.46948000e+00  6.40116300e+00  6.16935600e+00  6.00126000e+00  6.00763600e+00  6.15055100e+00  6.31945700e+00  6.44731400e+00  6.47686600e+00
      6.40116300e+00  6.50879900e+00  6.32471600e+00  6.16935600e+00  6.15167400e+00  6.23905800e+00  6.35154100e+00  6.39485600e+00  6.37249100e+00
      6.16935600e+00  6.32471600e+00  6.50879900e+00  6.40116300e+00  6.37249100e+00  6.39485600e+00  6.35154100e+00  6.23905800e+00  6.15167400e+00
      6.00126000e+00  6.16935600e+00  6.40116300e+00  6.46948000e+00  6.47686600e+00  6.44731400e+00  6.31945700e+00  6.15055100e+00  6.00763600e+00
      6.00763600e+00  6.15167400e+00  6.37249100e+00  6.47686600e+00  6.42342000e+00  6.41252200e+00  6.35154100e+00  6.18396100e+00  6.03135900e+00
      6.15055100e+00  6.23905800e+00  6.39485600e+00  6.44731400e+00  6.41252200e+00  6.35315300e+00  6.35154100e+00  6.30284300e+00  6.18396100e+00
      6.31945700e+00  6.35154100e+00  6.35154100e+00  6.31945700e+00  6.35154100e+00  6.35154100e+00  6.31945700e+00  6.35154100e+00  6.35154100e+00
      6.44731400e+00  6.39485600e+00  6.23905800e+00  6.15055100e+00  6.18396100e+00  6.30284300e+00  6.35154100e+00  6.35315300e+00  6.41252200e+00
      6.47686600e+00  6.37249100e+00  6.15167400e+00  6.00763600e+00  6.03135900e+00  6.18396100e+00  6.35154100e+00  6.41252200e+00  6.42342000e+00
      6.40467100e+00  6.42342000e+00  6.25060700e+00  6.00763600e+00  5.86956800e+00  5.94089800e+00  6.15055100e+00  6.35315300e+00  6.42093700e+00
      6.42342000e+00  6.47686600e+00  6.37249100e+00  6.15167400e+00  6.00763600e+00  6.03135900e+00  6.18396100e+00  6.35154100e+00  6.41252200e+00
      6.25060700e+00  6.37249100e+00  6.52568700e+00  6.37249100e+00  6.25060700e+00  6.23905800e+00  6.30284300e+00  6.30284300e+00  6.23905800e+00
      6.00763600e+00  6.15167400e+00  6.37249100e+00  6.47686600e+00  6.42342000e+00  6.41252200e+00  6.35154100e+00  6.18396100e+00  6.03135900e+00
      5.86956800e+00  6.00763600e+00  6.25060700e+00  6.42342000e+00  6.40467100e+00  6.42093700e+00  6.35315300e+00  6.15055100e+00  5.94089800e+00
      5.94089800e+00  6.03135900e+00  6.23905800e+00  6.41252200e+00  6.42093700e+00  6.42093700e+00  6.41252200e+00  6.23905800e+00  6.03135900e+00
      6.15055100e+00  6.18396100e+00  6.30284300e+00  6.35154100e+00  6.35315300e+00  6.41252200e+00  6.44731400e+00  6.39485600e+00  6.23905800e+00
      6.35315300e+00  6.35154100e+00  6.30284300e+00  6.18396100e+00  6.15055100e+00  6.23905800e+00  6.39485600e+00  6.44731400e+00  6.41252200e+00
      6.42093700e+00  6.41252200e+00  6.23905800e+00  6.03135900e+00  5.94089800e+00  6.03135900e+00  6.23905800e+00  6.41252200e+00  6.42093700e+00
      6.40467100e+00  6.42093700e+00  6.35315300e+00  6.15055100e+00  5.94089800e+00  5.86956800e+00  6.00763600e+00  6.25060700e+00  6.42342000e+00
      6.42093700e+00  6.42093700e+00  6.41252200e+00  6.23905800e+00  6.03135900e+00  5.94089800e+00  6.03135900e+00  6.23905800e+00  6.41252200e+00
      6.35315300e+00  6.41252200e+00  6.44731400e+00  6.39485600e+00  6.23905800e+00  6.15055100e+00  6.18396100e+00  6.30284300e+00  6.35154100e+00
      6.15055100e+00  6.23905800e+00  6.39485600e+00  6.44731400e+00  6.41252200e+00  6.35315300e+00  6.35154100e+00  6.30284300e+00  6.18396100e+00
      5.94089800e+00  6.03135900e+00  6.23905800e+00  6.41252200e+00  6.42093700e+00  6.42093700e+00  6.41252200e+00  6.23905800e+00  6.03135900e+00
      5.86956800e+00  5.94089800e+00  6.15055100e+00  6.35315300e+00  6.42093700e+00  6.40467100e+00  6.42342000e+00  6.25060700e+00  6.00763600e+00
      6.00763600e+00  6.03135900e+00  6.18396100e+00  6.35154100e+00  6.41252200e+00  6.42342000e+00  6.47686600e+00  6.37249100e+00  6.15167400e+00
      6.25060700e+00  6.23905800e+00  6.30284300e+00  6.30284300e+00  6.23905800e+00  6.25060700e+00  6.37249100e+00  6.52568700e+00  6.37249100e+00
      6.42342000e+00  6.41252200e+00  6.35154100e+00  6.18396100e+00  6.03135900e+00  6.00763600e+00  6.15167400e+00  6.37249100e+00  6.47686600e+00
      6.46948000e+00  6.47686600e+00  6.44731400e+00  6.31945700e+00  6.15055100e+00  6.00763600e+00  6.00126000e+00  6.16935600e+00  6.40116300e+00
      6.47686600e+00  6.42342000e+00  6.41252200e+00  6.35154100e+00  6.18396100e+00  6.03135900e+00  6.00763600e+00  6.15167400e+00  6.37249100e+00
      6.44731400e+00  6.41252200e+00  6.35315300e+00  6.35154100e+00  6.30284300e+00  6.18396100e+00  6.15055100e+00  6.23905800e+00  6.39485600e+00
      6.31945700e+00  6.35154100e+00  6.35154100e+00  6.31945700e+00  6.35154100e+00  6.35154100e+00  6.31945700e+00  6.35154100e+00  6.35154100e+00
      6.15055100e+00  6.18396100e+00  6.30284300e+00  6.35154100e+00  6.35315300e+00  6.41252200e+00  6.44731400e+00  6.39485600e+00  6.23905800e+00
      6.00763600e+00  6.03135900e+00  6.18396100e+00  6.35154100e+00  6.41252200e+00  6.42342000e+00  6.47686600e+00  6.37249100e+00  6.15167400e+00
      6.00126000e+00  6.00763600e+00  6.15055100e+00  6.31945700e+00  6.44731400e+00  6.47686600e+00  6.46948000e+00  6.40116300e+00  6.16935600e+00
      6.16935600e+00  6.15167400e+00  6.23905800e+00  6.35154100e+00  6.39485600e+00  6.37249100e+00  6.40116300e+00  6.50879900e+00  6.32471600e+00
      6.40116300e+00  6.37249100e+00  6.39485600e+00  6.35154100e+00  6.23905800e+00  6.15167400e+00  6.16935600e+00  6.32471600e+00  6.50879900e+00
      6.50228300e+00  6.50879900e+00  6.52568700e+00  6.44731400e+00  6.35315300e+00  6.25060700e+00  6.16935600e+00  6.18589000e+00  6.34282000e+00
      6.50879900e+00  6.40116300e+00  6.37249100e+00  6.39485600e+00  6.35154100e+00  6.23905800e+00  6.15167400e+00  6.16935600e+00  6.32471600e+00
      6.52568700e+00  6.37249100e+00  6.25060700e+00  6.23905800e+00  6.30284300e+00  6.30284300e+00  6.23905800e+00  6.25060700e+00  6.37249100e+00
      6.44731400e+00  6.39485600e+00  6.23905800e+00  6.15055100e+00  6.18396100e+00  6.30284300e+00  6.35154100e+00  6.35315300e+00  6.41252200e+00
      6.35315300e+00  6.35154100e+00  6.30284300e+00  6.18396100e+00  6.15055100e+00  6.23905800e+00  6.39485600e+00  6.44731400e+00  6.41252200e+00
      6.25060700e+00  6.23905800e+00  6.30284300e+00  6.30284300e+00  6.23905800e+00  6.25060700e+00  6.37249100e+00  6.52568700e+00  6.37249100e+00
      6.16935600e+00  6.15167400e+00  6.23905800e+00  6.35154100e+00  6.39485600e+00  6.37249100e+00  6.40116300e+00  6.50879900e+00  6.32471600e+00
      6.18589000e+00  6.16935600e+00  6.25060700e+00  6.35315300e+00  6.44731400e+00  6.52568700e+00  6.50879900e+00  6.50228300e+00  6.34282000e+00
      6.34282000e+00  6.32471600e+00  6.37249100e+00  6.41252200e+00  6.41252200e+00  6.37249100e+00  6.32471600e+00  6.34282000e+00  6.45296800e+00
      6.44496900e+00  6.45296800e+00  6.50879900e+00  6.47686600e+00  6.42093700e+00  6.42342000e+00  6.40116300e+00  6.34282000e+00  6.33891600e+00
      6.45296800e+00  6.34282000e+00  6.32471600e+00  6.37249100e+00  6.41252200e+00  6.41252200e+00  6.37249100e+00  6.32471600e+00  6.34282000e+00
      6.50879900e+00  6.32471600e+00  6.16935600e+00  6.15167400e+00  6.23905800e+00  6.35154100e+00  6.39485600e+00  6.37249100e+00  6.40116300e+00
      6.47686600e+00  6.37249100e+00  6.15167400e+00  6.00763600e+00  6.03135900e+00  6.18396100e+00  6.35154100e+00  6.41252200e+00  6.42342000e+00
      6.42093700e+00  6.41252200e+00  6.23905800e+00  6.03135900e+00  5.94089800e+00  6.03135900e+00  6.23905800e+00  6.41252200e+00  6.42093700e+00
      6.42342000e+00  6.41252200e+00  6.35154100e+00  6.18396100e+00  6.03135900e+00  6.00763600e+00  6.15167400e+00  6.37249100e+00  6.47686600e+00
      6.40116300e+00  6.37249100e+00  6.39485600e+00  6.35154100e+00  6.23905800e+00  6.15167400e+00  6.16935600e+00  6.32471600e+00  6.50879900e+00
      6.34282000e+00  6.32471600e+00  6.37249100e+00  6.41252200e+00  6.41252200e+00  6.37249100e+00  6.32471600e+00  6.34282000e+00  6.45296800e+00
      6.33891600e+00  6.34282000e+00  6.40116300e+00  6.42342000e+00  6.42093700e+00  6.47686600e+00  6.50879900e+00  6.45296800e+00  6.44496900e+00

    BAND:   -33
      6.39279900e+00  6.44364000e+00  6.50101200e+00  6.46832200e+00  6.40366000e+00  6.40366000e+00  6.46832200e+00  6.50101200e+00  6.44364000e+00
      6.44364000e+00  6.33765400e+00  6.34154900e+00  6.39988100e+00  6.42223300e+00  6.41983700e+00  6.47567100e+00  6.50732800e+00  6.45156700e+00
      6.50101200e+00  6.34154900e+00  6.18473700e+00  6.16828000e+00  6.24951300e+00  6.35193300e+00  6.44597200e+00  6.52422000e+00  6.50732800e+00
      6.46832200e+00  6.39988100e+00  6.16828000e+00  6.00039900e+00  6.00686800e+00  6.14962200e+00  6.31825200e+00  6.44597200e+00  6.47567100e+00
      6.40366000e+00  6.42223300e+00  6.24951300e+00  6.00686800e+00  5.86902400e+00  5.94030200e+00  6.14962200e+00  6.35193300e+00  6.41983700e+00
      6.40366000e+00  6.41983700e+00  6.35193300e+00  6.14962200e+00  5.94030200e+00  5.86902400e+00  6.00686800e+00  6.24951300e+00  6.42223300e+00
      6.46832200e+00  6.47567100e+00  6.44597200e+00  6.31825200e+00  6.14962200e+00  6.00686800e+00  6.00039900e+00  6.16828000e+00  6.39988100e+00
      6.50101200e+00  6.50732800e+00  6.52422000e+00  6.44597200e+00  6.35193300e+00  6.24951300e+00  6.16828000e+00  6.18473700e+00  6.34154900e+00
      6.44364000e+00  6.45156700e+00  6.50732800e+00  6.47567100e+00  6.41983700e+00  6.42223300e+00  6.39988100e+00  6.34154900e+00  6.33765400e+00
      6.44364000e+00  6.33765400e+00  6.34154900e+00  6.39988100e+00  6.42223300e+00  6.41983700e+00  6.47567100e+00  6.50732800e+00  6.45156700e+00
      6.33765400e+00  6.44364000e+00  6.45156700e+00  6.50732800e+00  6.47567100e+00  6.41983700e+00  6.42223300e+00  6.39988100e+00  6.34154900e+00
      6.34154900e+00  6.45156700e+00  6.34154900e+00  6.32347000e+00  6.37123600e+00  6.41124500e+00  6.41124500e+00  6.37123600e+00  6.32347000e+00
      6.39988100e+00  6.50732800e+00  6.32347000e+00  6.16828000e+00  6.15068000e+00  6.23798900e+00  6.35026000e+00  6.39354800e+00  6.37123600e+00
      6.42223300e+00  6.47567100e+00  6.37123600e+00  6.15068000e+00  6.00686800e+00  6.03061300e+00  6.18297100e+00  6.35026000e+00  6.41124500e+00
      6.41983700e+00  6.41983700e+00  6.41124500e+00  6.23798900e+00  6.03061300e+00  5.94030200e+00  6.03061300e+00  6.23798900e+00  6.41124500e+00
      6.47567100e+00  6.42223300e+00  6.41124500e+00  6.35026000e+00  6.18297100e+00  6.03061300e+00  6.00686800e+00  6.15068000e+00  6.37123600e+00
      6.50732800e+00  6.39988100e+00  6.37123600e+00  6.39354800e+00  6.35026000e+00  6.23798900e+00  6.15068000e+00  6.16828000e+00  6.32347000e+00
      6.45156700e+00  6.34154900e+00  6.32347000e+00  6.37123600e+00  6.41124500e+00  6.41124500e+00  6.37123600e+00  6.32347000e+00  6.34154900e+00
      6.50101200e+00  6.34154900e+00  6.18473700e+00  6.16828000e+00  6.24951300e+00  6.35193300e+00  6.44597200e+00  6.52422000e+00  6.50732800e+00
      6.34154900e+00  6.45156700e+00  6.34154900e+00  6.32347000e+00  6.37123600e+00  6.41124500e+00  6.41124500e+00  6.37123600e+00  6.32347000e+00
      6.18473700e+00  6.34154900e+00  6.50101200e+00  6.50732800e+00  6.52422000e+00  6.44597200e+00  6.35193300e+00  6.24951300e+00  6.16828000e+00
      6.16828000e+00  6.32347000e+00  6.50732800e+00  6.39988100e+00  6.37123600e+00  6.39354800e+00  6.35026000e+00  6.23798900e+00  6.15068000e+00
      6.24951300e+00  6.37123600e+00  6.52422000e+00  6.37123600e+00  6.24951300e+00  6.23798900e+00  6.30161500e+00  6.30161500e+00  6.23798900e+00
      6.35193300e+00  6.41124500e+00  6.44597200e+00  6.39354800e+00  6.23798900e+00  6.14962200e+00  6.18297100e+00  6.30161500e+00  6.35026000e+00
      6.44597200e+00  6.41124500e+00  6.35193300e+00  6.35026000e+00  6.30161500e+00  6.18297100e+00  6.14962200e+00  6.23798900e+00  6.39354800e+00
      6.52422000e+00  6.37123600e+00  6.24951300e+00  6.23798900e+00  6.30161500e+00  6.30161500e+00  6.23798900e+00  6.24951300e+00  6.37123600e+00
      6.50732800e+00  6.32347000e+00  6.16828000e+00  6.15068000e+00  6.23798900e+00  6.35026000e+00  6.39354800e+00  6.37123600e+00  6.39988100e+00
      6.46832200e+00  6.39988100e+00  6.16828000e+00  6.00039900e+00  6.00686800e+00  6.14962200e+00  6.31825200e+00  6.44597200e+00  6.47567100e+00
      6.39988100e+00  6.50732800e+00  6.32347000e+00  6.16828000e+00  6.15068000e+00  6.23798900e+00  6.35026000e+00  6.39354800e+00  6.37123600e+00
      6.16828000e+00  6.32347000e+00  6.50732800e+00  6.39988100e+00  6.37123600e+00  6.39354800e+00  6.35026000e+00  6.23798900e+00  6.15068000e+00
      6.00039900e+00  6.16828000e+00  6.39988100e+00  6.46832200e+00  6.47567100e+00  6.44597200e+00  6.31825200e+00  6.14962200e+00  6.00686800e+00
      6.00686800e+00  6.15068000e+00  6.37123600e+00  6.47567100e+00  6.42223300e+00  6.41124500e+00  6.35026000e+00  6.18297100e+00  6.03061300e+00
      6.14962200e+00  6.23798900e+00  6.39354800e+00  6.44597200e+00  6.41124500e+00  6.35193300e+00  6.35026000e+00  6.30161500e+00  6.18297100e+00
      6.31825200e+00  6.35026000e+00  6.35026000e+00  6.31825200e+00  6.35026000e+00  6.35026000e+00  6.31825200e+00  6.35026000e+00  6.35026000e+00
      6.44597200e+00  6.39354800e+00  6.23798900e+00  6.14962200e+00  6.18297100e+00  6.30161500e+00  6.35026000e+00  6.35193300e+00  6.41124500e+00
      6.47567100e+00  6.37123600e+00  6.15068000e+00  6.00686800e+00  6.03061300e+00  6.18297100e+00  6.35026000e+00  6.41124500e+00  6.42223300e+00
      6.40366000e+00  6.42223300e+00  6.24951300e+00  6.00686800e+00  5.86902400e+00  5.94030200e+00  6.14962200e+00  6.35193300e+00  6.41983700e+00
      6.42223300e+00  6.47567100e+00  6.37123600e+00  6.15068000e+00  6.00686800e+00  6.03061300e+00  6.18297100e+00  6.35026000e+00  6.41124500e+00
      6.24951300e+00  6.37123600e+00  6.52422000e+00  6.37123600e+00  6.24951300e+00  6.23798900e+00  6.30161500e+00  6.30161500e+00  6.23798900e+00
      6.00686800e+00  6.15068000e+00  6.37123600e+00  6.47567100e+00  6.42223300e+00  6.41124500e+00  6.35026000e+00  6.18297100e+00  6.03061300e+00
      5.86902400e+00  6.00686800e+00  6.24951300e+00  6.42223300e+00  6.40366000e+00  6.41983700e+00  6.35193300e+00  6.14962200e+00  5.94030200e+00
      5.94030200e+00  6.03061300e+00  6.23798900e+00  6.41124500e+00  6.41983700e+00  6.41983700e+00  6.41124500e+00  6.23798900e+00  6.03061300e+00
      6.14962200e+00  6.18297100e+00  6.30161500e+00  6.35026000e+00  6.35193300e+00  6.41124500e+00  6.44597200e+00  6.39354800e+00  6.23798900e+00
      6.35193300e+00  6.35026000e+00  6.30161500e+00  6.18297100e+00  6.14962200e+00  6.23798900e+00  6.39354800e+00  6.44597200e+00  6.41124500e+00
      6.41983700e+00  6.41124500e+00  6.23798900e+00  6.03061300e+00  5.94030200e+00  6.03061300e+00  6.23798900e+00  6.41124500e+00  6.41983700e+00
      6.40366000e+00  6.41983700e+00  6.35193300e+00  6.14962200e+00  5.94030200e+00  5.86902400e+00  6.00686800e+00  6.24951300e+00  6.42223300e+00
      6.41983700e+00  6.41983700e+00  6.41124500e+00  6.23798900e+00  6.03061300e+00  5.94030200e+00  6.03061300e+00  6.23798900e+00  6.41124500e+00
      6.35193300e+00  6.41124500e+00  6.44597200e+00  6.39354800e+00  6.23798900e+00  6.14962200e+00  6.18297100e+00  6.30161500e+00  6.35026000e+00
      6.14962200e+00  6.23798900e+00  6.39354800e+00  6.44597200e+00  6.41124500e+00  6.35193300e+00  6.35026000e+00  6.30161500e+00  6.18297100e+00
      5.94030200e+00  6.03061300e+00  6.23798900e+00  6.41124500e+00  6.41983700e+00  6.41983700e+00  6.41124500e+00  6.23798900e+00  6.03061300e+00
      5.86902400e+00  5.94030200e+00  6.14962200e+00  6.35193300e+00  6.41983700e+00  6.40366000e+00  6.42223300e+00  6.24951300e+00  6.00686800e+00
      6.00686800e+00  6.03061300e+00  6.18297100e+00  6.35026000e+00  6.41124500e+00  6.42223300e+00  6.47567100e+00  6.37123600e+00  6.15068000e+00
      6.24951300e+00  6.23798900e+00  6.30161500e+00  6.30161500e+00  6.23798900e+00  6.24951300e+00  6.37123600e+00  6.52422000e+00  6.37123600e+00
      6.42223300e+00  6.41124500e+00  6.35026000e+00  6.18297100e+00  6.03061300e+00  6.00686800e+00  6.15068000e+00  6.37123600e+00  6.47567100e+00
      6.46832200e+00  6.47567100e+00  6.44597200e+00  6.31825200e+00  6.14962200e+00  6.00686800e+00  6.00039900e+00  6.16828000e+00  6.39988100e+00
      6.47567100e+00  6.42223300e+00  6.41124500e+00  6.35026000e+00  6.18297100e+00  6.03061300e+00  6.00686800e+00  6.15068000e+00  6.37123600e+00
      6.44597200e+00  6.41124500e+00  6.35193300e+00  6.35026000e+00  6.30161500e+00  6.18297100e+00  6.14962200e+00  6.23798900e+00  6.39354800e+00
      6.31825200e+00  6.35026000e+00  6.35026000e+00  6.31825200e+00  6.35026000e+00  6.35026000e+00  6.31825200e+00  6.35026000e+00  6.35026000e+00
      6.14962200e+00  6.18297100e+00  6.30161500e+00  6.35026000e+00  6.35193300e+00  6.41124500e+00  6.44597200e+00  6.39354800e+00  6.23798900e+00
      6.00686800e+00  6.03061300e+00  6.18297100e+00  6.35026000e+00  6.41124500e+00  6.42223300e+00  6.47567100e+00  6.37123600e+00  6.15068000e+00
      6.00039900e+00  6.00686800e+00  6.14962200e+00  6.31825200e+00  6.44597200e+00  6.47567100e+00  6.46832200e+00  6.39988100e+00  6.16828000e+00
      6.16828000e+00  6.15068000e+00  6.23798900e+00  6.35026000e+00  6.39354800e+00  6.37123600e+00  6.39988100e+00  6.50732800e+00  6.32347000e+00
      6.39988100e+00  6.37123600e+00  6.39354800e+00  6.35026000e+00  6.23798900e+00  6.15068000e+00  6.16828000e+00  6.32347000e+00  6.50732800e+00
      6.50101200e+00  6.50732800e+00  6.52422000e+00  6.44597200e+00  6.35193300e+00  6.24951300e+00  6.16828000e+00  6.18473700e+00  6.34154900e+00
      6.50732800e+00  6.39988100e+00  6.37123600e+00  6.39354800e+00  6.35026000e+00  6.23798900e+00  6.15068000e+00  6.16828000e+00  6.32347000e+00
      6.52422000e+00  6.37123600e+00  6.24951300e+00  6.23798900e+00  6.30161500e+00  6.30161500e+00  6.23798900e+00  6.24951300e+00  6.37123600e+00
      6.44597200e+00  6.39354800e+00  6.23798900e+00  6.14962200e+00  6.18297100e+00  6.30161500e+00  6.35026000e+00  6.35193300e+00  6.41124500e+00
      6.35193300e+00  6.35026000e+00  6.30161500e+00  6.18297100e+00  6.14962200e+00  6.23798900e+00  6.39354800e+00  6.44597200e+00  6.41124500e+00
      6.24951300e+00  6.23798900e+00  6.30161500e+00  6.30161500e+00  6.23798900e+00  6.24951300e+00  6.37123600e+00  6.52422000e+00  6.37123600e+00
      6.16828000e+00  6.15068000e+00  6.23798900e+00  6.35026000e+00  6.39354800e+00  6.37123600e+00  6.39988100e+00  6.50732800e+00  6.32347000e+00
      6.18473700e+00  6.16828000e+00  6.24951300e+00  6.35193300e+00  6.44597200e+00  6.52422000e+00  6.50732800e+00  6.50101200e+00  6.34154900e+00
      6.34154900e+00  6.32347000e+00  6.37123600e+00  6.41124500e+00  6.41124500e+00  6.37123600e+00  6.32347000e+00  6.34154900e+00  6.45156700e+00
      6.44364000e+00  6.45156700e+00  6.50732800e+00  6.47567100e+00  6.41983700e+00  6.42223300e+00  6.39988100e+00  6.34154900e+00  6.33765400e+00
      6.45156700e+00  6.34154900e+00  6.32347000e+00  6.37123600e+00  6.41124500e+00  6.41124500e+00  6.37123600e+00  6.32347000e+00  6.34154900e+00
      6.50732800e+00  6.32347000e+00  6.16828000e+00  6.15068000e+00  6.23798900e+00  6.35026000e+00  6.39354800e+00  6.37123600e+00  6.39988100e+00
      6.47567100e+00  6.37123600e+00  6.15068000e+00  6.00686800e+00  6.03061300e+00  6.18297100e+00  6.35026000e+00  6.41124500e+00  6.42223300e+00
      6.41983700e+00  6.41124500e+00  6.23798900e+00  6.03061300e+00  5.94030200e+00  6.03061300e+00  6.23798900e+00  6.41124500e+00  6.41983700e+00
      6.42223300e+00  6.41124500e+00  6.35026000e+00  6.18297100e+00  6.03061300e+00  6.00686800e+00  6.15068000e+00  6.37123600e+00  6.47567100e+00
      6.39988100e+00  6.37123600e+00  6.39354800e+00  6.35026000e+00  6.23798900e+00  6.15068000e+00  6.16828000e+00  6.32347000e+00  6.50732800e+00
      6.34154900e+00  6.32347000e+00  6.37123600e+00  6.41124500e+00  6.41124500e+00  6.37123600e+00  6.32347000e+00  6.34154900e+00  6.45156700e+00
      6.33765400e+00  6.34154900e+00  6.39988100e+00  6.42223300e+00  6.41983700e+00  6.47567100e+00  6.50732800e+00  6.45156700e+00  6.44364000e+00

  END_BANDGRID_3D
END_BLOCK_BANDGRID_3D
