BEGIN_INFO
# Launch as: xcrysden --bxsf xxx.bxsf
Fermi Energy:    13.339186
END_INFO

BEGIN_BLOCK_BANDGRID_3D
  band_energies
  BANDGRID_3D_BANDS
    16
       12   12   10
          0.00000000      0.00000000      0.00000000
          0.20850274     -0.12462302      0.00000000
          0.20850274      0.12462302      0.00000000
          0.00000000      0.00000000      0.20938023
    BAND:    26
      1.05731300e+01  1.07053180e+01  1.04425280e+01  1.01688030e+01  1.00155930e+01  1.04801700e+01  1.09364910e+01  1.04801700e+01  1.00155930e+01  1.01688030e+01
      1.04425280e+01  1.07053180e+01  1.07053180e+01  1.11229260e+01  1.09684620e+01  1.06731630e+01  1.07565230e+01  1.09850400e+01  1.14390850e+01  1.09766230e+01
      1.06182410e+01  1.06469770e+01  1.05939000e+01  1.02939040e+01  1.04425280e+01  1.09684620e+01  1.16305530e+01  1.15972330e+01  1.17922610e+01  1.17972400e+01
      1.17698720e+01  1.16263090e+01  1.10393560e+01  1.04022700e+01  9.96183000e+00  1.05939000e+01  1.01688030e+01  1.06731630e+01  1.15972330e+01  1.24356640e+01
      1.29932360e+01  1.29055480e+01  1.26989660e+01  1.16909710e+01  1.10340460e+01  1.03421720e+01  1.04022700e+01  1.06469770e+01  1.00155930e+01  1.07565230e+01
      1.17922610e+01  1.29932360e+01  1.35355530e+01  1.28104200e+01  1.19103890e+01  1.08381650e+01  1.04958990e+01  1.10340460e+01  1.10393560e+01  1.06182410e+01
      1.04801700e+01  1.09850400e+01  1.17972400e+01  1.29055480e+01  1.28104200e+01  1.18005600e+01  1.15278790e+01  1.04517770e+01  1.08381650e+01  1.16909710e+01
      1.16263090e+01  1.09766230e+01  1.09364910e+01  1.14390850e+01  1.17698720e+01  1.26989660e+01  1.19103890e+01  1.15278790e+01  1.14262830e+01  1.15278790e+01
      1.19103890e+01  1.26989660e+01  1.17698720e+01  1.14390850e+01  1.04801700e+01  1.09766230e+01  1.16263090e+01  1.16909710e+01  1.08381650e+01  1.04517770e+01
      1.15278790e+01  1.18005600e+01  1.28104200e+01  1.29055480e+01  1.17972400e+01  1.09850400e+01  1.00155930e+01  1.06182410e+01  1.10393560e+01  1.10340460e+01
      1.04958990e+01  1.08381650e+01  1.19103890e+01  1.28104200e+01  1.35355530e+01  1.29932360e+01  1.17922610e+01  1.07565230e+01  1.01688030e+01  1.06469770e+01
      1.04022700e+01  1.03421720e+01  1.10340460e+01  1.16909710e+01  1.26989660e+01  1.29055480e+01  1.29932360e+01  1.24356640e+01  1.15972330e+01  1.06731630e+01
      1.04425280e+01  1.05939000e+01  9.96183000e+00  1.04022700e+01  1.10393560e+01  1.16263090e+01  1.17698720e+01  1.17972400e+01  1.17922610e+01  1.15972330e+01
      1.16305530e+01  1.09684620e+01  1.07053180e+01  1.02939040e+01  1.05939000e+01  1.06469770e+01  1.06182410e+01  1.09766230e+01  1.14390850e+01  1.09850400e+01
      1.07565230e+01  1.06731630e+01  1.09684620e+01  1.11229260e+01  1.00918560e+01  1.07659820e+01  1.10007360e+01  1.08882700e+01  1.09023400e+01  1.07018210e+01
      1.10606260e+01  1.07018210e+01  1.09023400e+01  1.08882700e+01  1.10007360e+01  1.07659820e+01  1.07659820e+01  1.05366310e+01  1.03988860e+01  1.06271160e+01
      1.16613010e+01  1.13643100e+01  1.16391730e+01  1.16336370e+01  1.06919260e+01  1.04908650e+01  1.06473590e+01  1.03917110e+01  1.10007360e+01  1.03988860e+01
      1.08118760e+01  1.15644420e+01  1.18365430e+01  1.26409530e+01  1.23739920e+01  1.16269030e+01  1.05686290e+01  1.03088020e+01  1.06356460e+01  1.06473590e+01
      1.08882700e+01  1.06271160e+01  1.15644420e+01  1.21433940e+01  1.28796220e+01  1.24521250e+01  1.18651060e+01  1.18198920e+01  1.13163770e+01  1.04763710e+01
      1.03088020e+01  1.04908650e+01  1.09023400e+01  1.16613010e+01  1.18365430e+01  1.28796220e+01  1.26743600e+01  1.28360060e+01  1.22355230e+01  1.15026900e+01
      1.10766230e+01  1.13163770e+01  1.05686290e+01  1.06919260e+01  1.07018210e+01  1.13643100e+01  1.26409530e+01  1.24521250e+01  1.28360060e+01  1.24823220e+01
      1.17146650e+01  1.09283900e+01  1.15026900e+01  1.18198920e+01  1.16269030e+01  1.16336370e+01  1.10606260e+01  1.16391730e+01  1.23739920e+01  1.18651060e+01
      1.22355230e+01  1.17146650e+01  1.14800720e+01  1.17146650e+01  1.22355230e+01  1.18651060e+01  1.23739920e+01  1.16391730e+01  1.07018210e+01  1.16336370e+01
      1.16269030e+01  1.18198920e+01  1.15026900e+01  1.09283900e+01  1.17146650e+01  1.24823220e+01  1.28360060e+01  1.24521250e+01  1.26409530e+01  1.13643100e+01
      1.09023400e+01  1.06919260e+01  1.05686290e+01  1.13163770e+01  1.10766230e+01  1.15026900e+01  1.22355230e+01  1.28360060e+01  1.26743600e+01  1.28796220e+01
      1.18365430e+01  1.16613010e+01  1.08882700e+01  1.04908650e+01  1.03088020e+01  1.04763710e+01  1.13163770e+01  1.18198920e+01  1.18651060e+01  1.24521250e+01
      1.28796220e+01  1.21433940e+01  1.15644420e+01  1.06271160e+01  1.10007360e+01  1.06473590e+01  1.06356460e+01  1.03088020e+01  1.05686290e+01  1.16269030e+01
      1.23739920e+01  1.26409530e+01  1.18365430e+01  1.15644420e+01  1.08118760e+01  1.03988860e+01  1.07659820e+01  1.03917110e+01  1.06473590e+01  1.04908650e+01
      1.06919260e+01  1.16336370e+01  1.16391730e+01  1.13643100e+01  1.16613010e+01  1.06271160e+01  1.03988860e+01  1.05366310e+01  9.13470900e+00  1.01252070e+01
      1.08490810e+01  1.14072230e+01  1.18062900e+01  1.19122210e+01  1.19075100e+01  1.19122210e+01  1.18062900e+01  1.14072230e+01  1.08490810e+01  1.01252070e+01
      1.01252070e+01  1.06245570e+01  1.08063330e+01  1.11197110e+01  1.19785510e+01  1.15595830e+01  1.23048810e+01  1.18849760e+01  1.11296410e+01  1.09904880e+01
      1.08175920e+01  9.73397100e+00  1.08490810e+01  1.08063330e+01  1.06376590e+01  1.11908320e+01  1.19744630e+01  1.25715840e+01  1.19091060e+01  1.17809760e+01
      1.07338340e+01  1.09154410e+01  1.04188640e+01  1.08175920e+01  1.14072230e+01  1.11197110e+01  1.11908320e+01  1.13981530e+01  1.21059730e+01  1.16618560e+01
      1.14506100e+01  1.13032550e+01  1.14384930e+01  1.10587850e+01  1.09154410e+01  1.09904880e+01  1.18062900e+01  1.19785510e+01  1.19744630e+01  1.21059730e+01
      1.17256090e+01  1.19788250e+01  1.20813190e+01  1.21656660e+01  1.21406280e+01  1.14384930e+01  1.07338340e+01  1.11296410e+01  1.19122210e+01  1.15595830e+01
      1.25715840e+01  1.16618560e+01  1.19788250e+01  1.28995490e+01  1.19773920e+01  1.19463710e+01  1.21656660e+01  1.13032550e+01  1.17809760e+01  1.18849760e+01
      1.19075100e+01  1.23048810e+01  1.19091060e+01  1.14506100e+01  1.20813190e+01  1.19773920e+01  1.16378420e+01  1.19773920e+01  1.20813190e+01  1.14506100e+01
      1.19091060e+01  1.23048810e+01  1.19122210e+01  1.18849760e+01  1.17809760e+01  1.13032550e+01  1.21656660e+01  1.19463710e+01  1.19773920e+01  1.28995490e+01
      1.19788250e+01  1.16618560e+01  1.25715840e+01  1.15595830e+01  1.18062900e+01  1.11296410e+01  1.07338340e+01  1.14384930e+01  1.21406280e+01  1.21656660e+01
      1.20813190e+01  1.19788250e+01  1.17256090e+01  1.21059730e+01  1.19744630e+01  1.19785510e+01  1.14072230e+01  1.09904880e+01  1.09154410e+01  1.10587850e+01
      1.14384930e+01  1.13032550e+01  1.14506100e+01  1.16618560e+01  1.21059730e+01  1.13981530e+01  1.11908320e+01  1.11197110e+01  1.08490810e+01  1.08175920e+01
      1.04188640e+01  1.09154410e+01  1.07338340e+01  1.17809760e+01  1.19091060e+01  1.25715840e+01  1.19744630e+01  1.11908320e+01  1.06376590e+01  1.08063330e+01
      1.01252070e+01  9.73397100e+00  1.08175920e+01  1.09904880e+01  1.11296410e+01  1.18849760e+01  1.23048810e+01  1.15595830e+01  1.19785510e+01  1.11197110e+01
      1.08063330e+01  1.06245570e+01  8.28703500e+00  9.30527300e+00  1.01125740e+01  1.09730600e+01  1.19062550e+01  1.27777630e+01  1.22063800e+01  1.27777630e+01
      1.19062550e+01  1.09730600e+01  1.01125740e+01  9.30527300e+00  9.30527300e+00  9.94851100e+00  1.07223980e+01  1.11707300e+01  1.22568110e+01  1.23360410e+01
      1.23803650e+01  1.24990620e+01  1.14683030e+01  1.13730900e+01  1.01778110e+01  8.95262600e+00  1.01125740e+01  1.07223980e+01  1.14509330e+01  1.15943120e+01
      1.16976800e+01  1.20483740e+01  1.18559970e+01  1.20313810e+01  1.16528750e+01  1.09897020e+01  9.78345000e+00  1.01778110e+01  1.09730600e+01  1.11707300e+01
      1.15943120e+01  1.11585530e+01  1.13675200e+01  1.11366020e+01  1.16950700e+01  1.17433900e+01  1.17627010e+01  1.08629650e+01  1.09897020e+01  1.13730900e+01
      1.19062550e+01  1.22568110e+01  1.16976800e+01  1.13675200e+01  1.09562020e+01  1.12701760e+01  1.17279480e+01  1.22090330e+01  1.22019000e+01  1.17627010e+01
      1.16528750e+01  1.14683030e+01  1.27777630e+01  1.23360410e+01  1.20483740e+01  1.11366020e+01  1.12701760e+01  1.22262920e+01  1.22877560e+01  1.26893870e+01
      1.22090330e+01  1.17433900e+01  1.20313810e+01  1.24990620e+01  1.22063800e+01  1.23803650e+01  1.18559970e+01  1.16950700e+01  1.17279480e+01  1.22877560e+01
      1.22704200e+01  1.22877560e+01  1.17279480e+01  1.16950700e+01  1.18559970e+01  1.23803650e+01  1.27777630e+01  1.24990620e+01  1.20313810e+01  1.17433900e+01
      1.22090330e+01  1.26893870e+01  1.22877560e+01  1.22262920e+01  1.12701760e+01  1.11366020e+01  1.20483740e+01  1.23360410e+01  1.19062550e+01  1.14683030e+01
      1.16528750e+01  1.17627010e+01  1.22019000e+01  1.22090330e+01  1.17279480e+01  1.12701760e+01  1.09562020e+01  1.13675200e+01  1.16976800e+01  1.22568110e+01
      1.09730600e+01  1.13730900e+01  1.09897020e+01  1.08629650e+01  1.17627010e+01  1.17433900e+01  1.16950700e+01  1.11366020e+01  1.13675200e+01  1.11585530e+01
      1.15943120e+01  1.11707300e+01  1.01125740e+01  1.01778110e+01  9.78345000e+00  1.09897020e+01  1.16528750e+01  1.20313810e+01  1.18559970e+01  1.20483740e+01
      1.16976800e+01  1.15943120e+01  1.14509330e+01  1.07223980e+01  9.30527300e+00  8.95262600e+00  1.01778110e+01  1.13730900e+01  1.14683030e+01  1.24990620e+01
      1.23803650e+01  1.23360410e+01  1.22568110e+01  1.11707300e+01  1.07223980e+01  9.94851100e+00  7.93827600e+00  8.70610500e+00  9.44329200e+00  1.05816660e+01
      1.21468340e+01  1.26513560e+01  1.24062000e+01  1.26513560e+01  1.21468340e+01  1.05816660e+01  9.44329200e+00  8.70610500e+00  8.70610500e+00  9.24782600e+00
      1.01360020e+01  1.13690570e+01  1.25006580e+01  1.23705410e+01  1.28159270e+01  1.30283790e+01  1.17790140e+01  1.08783920e+01  9.49432000e+00  8.78689500e+00
      9.44329200e+00  1.01360020e+01  1.14994370e+01  1.21812660e+01  1.22931910e+01  1.22555700e+01  1.29409920e+01  1.25728220e+01  1.17960330e+01  1.04638370e+01
      9.59138600e+00  9.49432000e+00  1.05816660e+01  1.13690570e+01  1.21812660e+01  1.21815150e+01  1.18510580e+01  1.20839210e+01  1.24114330e+01  1.26844270e+01
      1.21250330e+01  1.12456720e+01  1.04638370e+01  1.08783920e+01  1.21468340e+01  1.25006580e+01  1.22931910e+01  1.18510580e+01  1.17098020e+01  1.17966770e+01
      1.27172460e+01  1.26812820e+01  1.27553720e+01  1.21250330e+01  1.17960330e+01  1.17790140e+01  1.26513560e+01  1.23705410e+01  1.22555700e+01  1.20839210e+01
      1.17966770e+01  1.20788990e+01  1.25277110e+01  1.26620530e+01  1.26812820e+01  1.26844270e+01  1.25728220e+01  1.30283790e+01  1.24062000e+01  1.28159270e+01
      1.29409920e+01  1.24114330e+01  1.27172460e+01  1.25277110e+01  1.24610660e+01  1.25277110e+01  1.27172460e+01  1.24114330e+01  1.29409920e+01  1.28159270e+01
      1.26513560e+01  1.30283790e+01  1.25728220e+01  1.26844270e+01  1.26812820e+01  1.26620530e+01  1.25277110e+01  1.20788990e+01  1.17966770e+01  1.20839210e+01
      1.22555700e+01  1.23705410e+01  1.21468340e+01  1.17790140e+01  1.17960330e+01  1.21250330e+01  1.27553720e+01  1.26812820e+01  1.27172460e+01  1.17966770e+01
      1.17098020e+01  1.18510580e+01  1.22931910e+01  1.25006580e+01  1.05816660e+01  1.08783920e+01  1.04638370e+01  1.12456720e+01  1.21250330e+01  1.26844270e+01
      1.24114330e+01  1.20839210e+01  1.18510580e+01  1.21815150e+01  1.21812660e+01  1.13690570e+01  9.44329200e+00  9.49432000e+00  9.59138600e+00  1.04638370e+01
      1.17960330e+01  1.25728220e+01  1.29409920e+01  1.22555700e+01  1.22931910e+01  1.21812660e+01  1.14994370e+01  1.01360020e+01  8.70610500e+00  8.78689500e+00
      9.49432000e+00  1.08783920e+01  1.17790140e+01  1.30283790e+01  1.28159270e+01  1.23705410e+01  1.25006580e+01  1.13690570e+01  1.01360020e+01  9.24782600e+00
      7.32390200e+00  8.09452400e+00  9.52331600e+00  1.09194420e+01  1.12782940e+01  1.18403010e+01  1.21657330e+01  1.18403010e+01  1.12782940e+01  1.09194420e+01
      9.52331600e+00  8.09452400e+00  8.09452400e+00  8.93273400e+00  1.02873740e+01  1.10928020e+01  1.15119440e+01  1.22689270e+01  1.26584510e+01  1.22787050e+01
      1.13726220e+01  1.03888030e+01  9.34925200e+00  8.55046200e+00  9.52331600e+00  1.02873740e+01  1.10769540e+01  1.19260640e+01  1.25029940e+01  1.24303880e+01
      1.27543140e+01  1.26750040e+01  1.13368750e+01  1.07414900e+01  1.00737290e+01  9.34925200e+00  1.09194420e+01  1.10928020e+01  1.19260640e+01  1.24903430e+01
      1.24892860e+01  1.24633670e+01  1.26996570e+01  1.22993610e+01  1.11864030e+01  1.09437620e+01  1.07414900e+01  1.03888030e+01  1.12782940e+01  1.15119440e+01
      1.25029940e+01  1.24892860e+01  1.26528530e+01  1.25379130e+01  1.26720270e+01  1.18946470e+01  1.13519870e+01  1.11864030e+01  1.13368750e+01  1.13726220e+01
      1.18403010e+01  1.22689270e+01  1.24303880e+01  1.24633670e+01  1.25379130e+01  1.25904620e+01  1.26096290e+01  1.18825450e+01  1.18946470e+01  1.22993610e+01
      1.26750040e+01  1.22787050e+01  1.21657330e+01  1.26584510e+01  1.27543140e+01  1.26996570e+01  1.26720270e+01  1.26096290e+01  1.25956530e+01  1.26096290e+01
      1.26720270e+01  1.26996570e+01  1.27543140e+01  1.26584510e+01  1.18403010e+01  1.22787050e+01  1.26750040e+01  1.22993610e+01  1.18946470e+01  1.18825450e+01
      1.26096290e+01  1.25904620e+01  1.25379130e+01  1.24633670e+01  1.24303880e+01  1.22689270e+01  1.12782940e+01  1.13726220e+01  1.13368750e+01  1.11864030e+01
      1.13519870e+01  1.18946470e+01  1.26720270e+01  1.25379130e+01  1.26528530e+01  1.24892860e+01  1.25029940e+01  1.15119440e+01  1.09194420e+01  1.03888030e+01
      1.07414900e+01  1.09437620e+01  1.11864030e+01  1.22993610e+01  1.26996570e+01  1.24633670e+01  1.24892860e+01  1.24903430e+01  1.19260640e+01  1.10928020e+01
      9.52331600e+00  9.34925200e+00  1.00737290e+01  1.07414900e+01  1.13368750e+01  1.26750040e+01  1.27543140e+01  1.24303880e+01  1.25029940e+01  1.19260640e+01
      1.10769540e+01  1.02873740e+01  8.09452400e+00  8.55046200e+00  9.34925200e+00  1.03888030e+01  1.13726220e+01  1.22787050e+01  1.26584510e+01  1.22689270e+01
      1.15119440e+01  1.10928020e+01  1.02873740e+01  8.93273400e+00  7.93827600e+00  8.70610500e+00  9.44329200e+00  1.05816660e+01  1.21468340e+01  1.26513560e+01
      1.24062000e+01  1.26513560e+01  1.21468340e+01  1.05816660e+01  9.44329200e+00  8.70610500e+00  8.70610500e+00  9.24782600e+00  1.01360020e+01  1.13690570e+01
      1.25006580e+01  1.23705410e+01  1.28159270e+01  1.30283790e+01  1.17790140e+01  1.08783920e+01  9.49432000e+00  8.78689500e+00  9.44329200e+00  1.01360020e+01
      1.14994370e+01  1.21812660e+01  1.22931910e+01  1.22555700e+01  1.29409920e+01  1.25728220e+01  1.17960330e+01  1.04638370e+01  9.59138600e+00  9.49432000e+00
      1.05816660e+01  1.13690570e+01  1.21812660e+01  1.21815150e+01  1.18510580e+01  1.20839210e+01  1.24114330e+01  1.26844270e+01  1.21250330e+01  1.12456720e+01
      1.04638370e+01  1.08783920e+01  1.21468340e+01  1.25006580e+01  1.22931910e+01  1.18510580e+01  1.17098020e+01  1.17966770e+01  1.27172460e+01  1.26812820e+01
      1.27553720e+01  1.21250330e+01  1.17960330e+01  1.17790140e+01  1.26513560e+01  1.23705410e+01  1.22555700e+01  1.20839210e+01  1.17966770e+01  1.20788990e+01
      1.25277110e+01  1.26620530e+01  1.26812820e+01  1.26844270e+01  1.25728220e+01  1.30283790e+01  1.24062000e+01  1.28159270e+01  1.29409920e+01  1.24114330e+01
      1.27172460e+01  1.25277110e+01  1.24610660e+01  1.25277110e+01  1.27172460e+01  1.24114330e+01  1.29409920e+01  1.28159270e+01  1.26513560e+01  1.30283790e+01
      1.25728220e+01  1.26844270e+01  1.26812820e+01  1.26620530e+01  1.25277110e+01  1.20788990e+01  1.17966770e+01  1.20839210e+01  1.22555700e+01  1.23705410e+01
      1.21468340e+01  1.17790140e+01  1.17960330e+01  1.21250330e+01  1.27553720e+01  1.26812820e+01  1.27172460e+01  1.17966770e+01  1.17098020e+01  1.18510580e+01
      1.22931910e+01  1.25006580e+01  1.05816660e+01  1.08783920e+01  1.04638370e+01  1.12456720e+01  1.21250330e+01  1.26844270e+01  1.24114330e+01  1.20839210e+01
      1.18510580e+01  1.21815150e+01  1.21812660e+01  1.13690570e+01  9.44329200e+00  9.49432000e+00  9.59138600e+00  1.04638370e+01  1.17960330e+01  1.25728220e+01
      1.29409920e+01  1.22555700e+01  1.22931910e+01  1.21812660e+01  1.14994370e+01  1.01360020e+01  8.70610500e+00  8.78689500e+00  9.49432000e+00  1.08783920e+01
      1.17790140e+01  1.30283790e+01  1.28159270e+01  1.23705410e+01  1.25006580e+01  1.13690570e+01  1.01360020e+01  9.24782600e+00  8.28703500e+00  9.30527300e+00
      1.01125740e+01  1.09730600e+01  1.19062550e+01  1.27777630e+01  1.22063800e+01  1.27777630e+01  1.19062550e+01  1.09730600e+01  1.01125740e+01  9.30527300e+00
      9.30527300e+00  9.94851100e+00  1.07223980e+01  1.11707300e+01  1.22568110e+01  1.23360410e+01  1.23803650e+01  1.24990620e+01  1.14683030e+01  1.13730900e+01
      1.01778110e+01  8.95262600e+00  1.01125740e+01  1.07223980e+01  1.14509330e+01  1.15943120e+01  1.16976800e+01  1.20483740e+01  1.18559970e+01  1.20313810e+01
      1.16528750e+01  1.09897020e+01  9.78345000e+00  1.01778110e+01  1.09730600e+01  1.11707300e+01  1.15943120e+01  1.11585530e+01  1.13675200e+01  1.11366020e+01
      1.16950700e+01  1.17433900e+01  1.17627010e+01  1.08629650e+01  1.09897020e+01  1.13730900e+01  1.19062550e+01  1.22568110e+01  1.16976800e+01  1.13675200e+01
      1.09562020e+01  1.12701760e+01  1.17279480e+01  1.22090330e+01  1.22019000e+01  1.17627010e+01  1.16528750e+01  1.14683030e+01  1.27777630e+01  1.23360410e+01
      1.20483740e+01  1.11366020e+01  1.12701760e+01  1.22262920e+01  1.22877560e+01  1.26893870e+01  1.22090330e+01  1.17433900e+01  1.20313810e+01  1.24990620e+01
      1.22063800e+01  1.23803650e+01  1.18559970e+01  1.16950700e+01  1.17279480e+01  1.22877560e+01  1.22704200e+01  1.22877560e+01  1.17279480e+01  1.16950700e+01
      1.18559970e+01  1.23803650e+01  1.27777630e+01  1.24990620e+01  1.20313810e+01  1.17433900e+01  1.22090330e+01  1.26893870e+01  1.22877560e+01  1.22262920e+01
      1.12701760e+01  1.11366020e+01  1.20483740e+01  1.23360410e+01  1.19062550e+01  1.14683030e+01  1.16528750e+01  1.17627010e+01  1.22019000e+01  1.22090330e+01
      1.17279480e+01  1.12701760e+01  1.09562020e+01  1.13675200e+01  1.16976800e+01  1.22568110e+01  1.09730600e+01  1.13730900e+01  1.09897020e+01  1.08629650e+01
      1.17627010e+01  1.17433900e+01  1.16950700e+01  1.11366020e+01  1.13675200e+01  1.11585530e+01  1.15943120e+01  1.11707300e+01  1.01125740e+01  1.01778110e+01
      9.78345000e+00  1.09897020e+01  1.16528750e+01  1.20313810e+01  1.18559970e+01  1.20483740e+01  1.16976800e+01  1.15943120e+01  1.14509330e+01  1.07223980e+01
      9.30527300e+00  8.95262600e+00  1.01778110e+01  1.13730900e+01  1.14683030e+01  1.24990620e+01  1.23803650e+01  1.23360410e+01  1.22568110e+01  1.11707300e+01
      1.07223980e+01  9.94851100e+00  9.13470900e+00  1.01252070e+01  1.08490810e+01  1.14072230e+01  1.18062900e+01  1.19122210e+01  1.19075100e+01  1.19122210e+01
      1.18062900e+01  1.14072230e+01  1.08490810e+01  1.01252070e+01  1.01252070e+01  1.06245570e+01  1.08063330e+01  1.11197110e+01  1.19785510e+01  1.15595830e+01
      1.23048810e+01  1.18849760e+01  1.11296410e+01  1.09904880e+01  1.08175920e+01  9.73397100e+00  1.08490810e+01  1.08063330e+01  1.06376590e+01  1.11908320e+01
      1.19744630e+01  1.25715840e+01  1.19091060e+01  1.17809760e+01  1.07338340e+01  1.09154410e+01  1.04188640e+01  1.08175920e+01  1.14072230e+01  1.11197110e+01
      1.11908320e+01  1.13981530e+01  1.21059730e+01  1.16618560e+01  1.14506100e+01  1.13032550e+01  1.14384930e+01  1.10587850e+01  1.09154410e+01  1.09904880e+01
      1.18062900e+01  1.19785510e+01  1.19744630e+01  1.21059730e+01  1.17256090e+01  1.19788250e+01  1.20813190e+01  1.21656660e+01  1.21406280e+01  1.14384930e+01
      1.07338340e+01  1.11296410e+01  1.19122210e+01  1.15595830e+01  1.25715840e+01  1.16618560e+01  1.19788250e+01  1.28995490e+01  1.19773920e+01  1.19463710e+01
      1.21656660e+01  1.13032550e+01  1.17809760e+01  1.18849760e+01  1.19075100e+01  1.23048810e+01  1.19091060e+01  1.14506100e+01  1.20813190e+01  1.19773920e+01
      1.16378420e+01  1.19773920e+01  1.20813190e+01  1.14506100e+01  1.19091060e+01  1.23048810e+01  1.19122210e+01  1.18849760e+01  1.17809760e+01  1.13032550e+01
      1.21656660e+01  1.19463710e+01  1.19773920e+01  1.28995490e+01  1.19788250e+01  1.16618560e+01  1.25715840e+01  1.15595830e+01  1.18062900e+01  1.11296410e+01
      1.07338340e+01  1.14384930e+01  1.21406280e+01  1.21656660e+01  1.20813190e+01  1.19788250e+01  1.17256090e+01  1.21059730e+01  1.19744630e+01  1.19785510e+01
      1.14072230e+01  1.09904880e+01  1.09154410e+01  1.10587850e+01  1.14384930e+01  1.13032550e+01  1.14506100e+01  1.16618560e+01  1.21059730e+01  1.13981530e+01
      1.11908320e+01  1.11197110e+01  1.08490810e+01  1.08175920e+01  1.04188640e+01  1.09154410e+01  1.07338340e+01  1.17809760e+01  1.19091060e+01  1.25715840e+01
      1.19744630e+01  1.11908320e+01  1.06376590e+01  1.08063330e+01  1.01252070e+01  9.73397100e+00  1.08175920e+01  1.09904880e+01  1.11296410e+01  1.18849760e+01
      1.23048810e+01  1.15595830e+01  1.19785510e+01  1.11197110e+01  1.08063330e+01  1.06245570e+01  1.00918560e+01  1.07659820e+01  1.10007360e+01  1.08882700e+01
      1.09023400e+01  1.07018210e+01  1.10606260e+01  1.07018210e+01  1.09023400e+01  1.08882700e+01  1.10007360e+01  1.07659820e+01  1.07659820e+01  1.05366310e+01
      1.03988860e+01  1.06271160e+01  1.16613010e+01  1.13643100e+01  1.16391730e+01  1.16336370e+01  1.06919260e+01  1.04908650e+01  1.06473590e+01  1.03917110e+01
      1.10007360e+01  1.03988860e+01  1.08118760e+01  1.15644420e+01  1.18365430e+01  1.26409530e+01  1.23739920e+01  1.16269030e+01  1.05686290e+01  1.03088020e+01
      1.06356460e+01  1.06473590e+01  1.08882700e+01  1.06271160e+01  1.15644420e+01  1.21433940e+01  1.28796220e+01  1.24521250e+01  1.18651060e+01  1.18198920e+01
      1.13163770e+01  1.04763710e+01  1.03088020e+01  1.04908650e+01  1.09023400e+01  1.16613010e+01  1.18365430e+01  1.28796220e+01  1.26743600e+01  1.28360060e+01
      1.22355230e+01  1.15026900e+01  1.10766230e+01  1.13163770e+01  1.05686290e+01  1.06919260e+01  1.07018210e+01  1.13643100e+01  1.26409530e+01  1.24521250e+01
      1.28360060e+01  1.24823220e+01  1.17146650e+01  1.09283900e+01  1.15026900e+01  1.18198920e+01  1.16269030e+01  1.16336370e+01  1.10606260e+01  1.16391730e+01
      1.23739920e+01  1.18651060e+01  1.22355230e+01  1.17146650e+01  1.14800720e+01  1.17146650e+01  1.22355230e+01  1.18651060e+01  1.23739920e+01  1.16391730e+01
      1.07018210e+01  1.16336370e+01  1.16269030e+01  1.18198920e+01  1.15026900e+01  1.09283900e+01  1.17146650e+01  1.24823220e+01  1.28360060e+01  1.24521250e+01
      1.26409530e+01  1.13643100e+01  1.09023400e+01  1.06919260e+01  1.05686290e+01  1.13163770e+01  1.10766230e+01  1.15026900e+01  1.22355230e+01  1.28360060e+01
      1.26743600e+01  1.28796220e+01  1.18365430e+01  1.16613010e+01  1.08882700e+01  1.04908650e+01  1.03088020e+01  1.04763710e+01  1.13163770e+01  1.18198920e+01
      1.18651060e+01  1.24521250e+01  1.28796220e+01  1.21433940e+01  1.15644420e+01  1.06271160e+01  1.10007360e+01  1.06473590e+01  1.06356460e+01  1.03088020e+01
      1.05686290e+01  1.16269030e+01  1.23739920e+01  1.26409530e+01  1.18365430e+01  1.15644420e+01  1.08118760e+01  1.03988860e+01  1.07659820e+01  1.03917110e+01
      1.06473590e+01  1.04908650e+01  1.06919260e+01  1.16336370e+01  1.16391730e+01  1.13643100e+01  1.16613010e+01  1.06271160e+01  1.03988860e+01  1.05366310e+01

    BAND:    27
      1.05730340e+01  1.07050140e+01  1.04422710e+01  1.01686840e+01  1.00155820e+01  1.04799520e+01  1.09362990e+01  1.04799520e+01  1.00155820e+01  1.01686840e+01
      1.04422710e+01  1.07050140e+01  1.07050140e+01  1.11228320e+01  1.09682050e+01  1.06728650e+01  1.07565030e+01  1.09845280e+01  1.14386940e+01  1.09763610e+01
      1.06176670e+01  1.06469190e+01  1.05941950e+01  1.02945840e+01  1.04422710e+01  1.09682050e+01  1.16305230e+01  1.15970430e+01  1.17920120e+01  1.17969300e+01
      1.17694870e+01  1.16257450e+01  1.10394900e+01  1.04024090e+01  9.96220100e+00  1.05941950e+01  1.01686840e+01  1.06728650e+01  1.15970430e+01  1.24356350e+01
      1.29929450e+01  1.29050130e+01  1.26985270e+01  1.16907930e+01  1.10338810e+01  1.03419040e+01  1.04024090e+01  1.06469190e+01  1.00155820e+01  1.07565030e+01
      1.17920120e+01  1.29929450e+01  1.35354930e+01  1.28097570e+01  1.19097700e+01  1.08380150e+01  1.04958210e+01  1.10338810e+01  1.10394900e+01  1.06176670e+01
      1.04799520e+01  1.09845280e+01  1.17969300e+01  1.29050130e+01  1.28097570e+01  1.18000140e+01  1.15271260e+01  1.04515800e+01  1.08380150e+01  1.16907930e+01
      1.16257450e+01  1.09763610e+01  1.09362990e+01  1.14386940e+01  1.17694870e+01  1.26985270e+01  1.19097700e+01  1.15271260e+01  1.14265890e+01  1.15271260e+01
      1.19097700e+01  1.26985270e+01  1.17694870e+01  1.14386940e+01  1.04799520e+01  1.09763610e+01  1.16257450e+01  1.16907930e+01  1.08380150e+01  1.04515800e+01
      1.15271260e+01  1.18000140e+01  1.28097570e+01  1.29050130e+01  1.17969300e+01  1.09845280e+01  1.00155820e+01  1.06176670e+01  1.10394900e+01  1.10338810e+01
      1.04958210e+01  1.08380150e+01  1.19097700e+01  1.28097570e+01  1.35354930e+01  1.29929450e+01  1.17920120e+01  1.07565030e+01  1.01686840e+01  1.06469190e+01
      1.04024090e+01  1.03419040e+01  1.10338810e+01  1.16907930e+01  1.26985270e+01  1.29050130e+01  1.29929450e+01  1.24356350e+01  1.15970430e+01  1.06728650e+01
      1.04422710e+01  1.05941950e+01  9.96220100e+00  1.04024090e+01  1.10394900e+01  1.16257450e+01  1.17694870e+01  1.17969300e+01  1.17920120e+01  1.15970430e+01
      1.16305230e+01  1.09682050e+01  1.07050140e+01  1.02945840e+01  1.05941950e+01  1.06469190e+01  1.06176670e+01  1.09763610e+01  1.14386940e+01  1.09845280e+01
      1.07565030e+01  1.06728650e+01  1.09682050e+01  1.11228320e+01  1.00919120e+01  1.07657300e+01  1.10003650e+01  1.08879210e+01  1.09021410e+01  1.07014820e+01
      1.10603490e+01  1.07014820e+01  1.09021410e+01  1.08879210e+01  1.10003650e+01  1.07657300e+01  1.07657300e+01  1.05365440e+01  1.03988170e+01  1.06267800e+01
      1.16611180e+01  1.13640420e+01  1.16387900e+01  1.16332220e+01  1.06915680e+01  1.04909500e+01  1.06474110e+01  1.03912290e+01  1.10003650e+01  1.03988170e+01
      1.08121410e+01  1.15639670e+01  1.18362890e+01  1.26405790e+01  1.23735200e+01  1.16266650e+01  1.05685900e+01  1.03091440e+01  1.06357980e+01  1.06474110e+01
      1.08879210e+01  1.06267800e+01  1.15639670e+01  1.21426160e+01  1.28794620e+01  1.24516750e+01  1.18642590e+01  1.18192650e+01  1.13160800e+01  1.04765210e+01
      1.03091440e+01  1.04909500e+01  1.09021410e+01  1.16611180e+01  1.18362890e+01  1.28794620e+01  1.26744420e+01  1.28354330e+01  1.22351820e+01  1.15025170e+01
      1.10764400e+01  1.13160800e+01  1.05685900e+01  1.06915680e+01  1.07014820e+01  1.13640420e+01  1.26405790e+01  1.24516750e+01  1.28354330e+01  1.24818150e+01
      1.17141880e+01  1.09282450e+01  1.15025170e+01  1.18192650e+01  1.16266650e+01  1.16332220e+01  1.10603490e+01  1.16387900e+01  1.23735200e+01  1.18642590e+01
      1.22351820e+01  1.17141880e+01  1.14803640e+01  1.17141880e+01  1.22351820e+01  1.18642590e+01  1.23735200e+01  1.16387900e+01  1.07014820e+01  1.16332220e+01
      1.16266650e+01  1.18192650e+01  1.15025170e+01  1.09282450e+01  1.17141880e+01  1.24818150e+01  1.28354330e+01  1.24516750e+01  1.26405790e+01  1.13640420e+01
      1.09021410e+01  1.06915680e+01  1.05685900e+01  1.13160800e+01  1.10764400e+01  1.15025170e+01  1.22351820e+01  1.28354330e+01  1.26744420e+01  1.28794620e+01
      1.18362890e+01  1.16611180e+01  1.08879210e+01  1.04909500e+01  1.03091440e+01  1.04765210e+01  1.13160800e+01  1.18192650e+01  1.18642590e+01  1.24516750e+01
      1.28794620e+01  1.21426160e+01  1.15639670e+01  1.06267800e+01  1.10003650e+01  1.06474110e+01  1.06357980e+01  1.03091440e+01  1.05685900e+01  1.16266650e+01
      1.23735200e+01  1.26405790e+01  1.18362890e+01  1.15639670e+01  1.08121410e+01  1.03988170e+01  1.07657300e+01  1.03912290e+01  1.06474110e+01  1.04909500e+01
      1.06915680e+01  1.16332220e+01  1.16387900e+01  1.13640420e+01  1.16611180e+01  1.06267800e+01  1.03988170e+01  1.05365440e+01  9.13480400e+00  1.01246400e+01
      1.08487200e+01  1.14070320e+01  1.18059150e+01  1.19119370e+01  1.19071340e+01  1.19119370e+01  1.18059150e+01  1.14070320e+01  1.08487200e+01  1.01246400e+01
      1.01246400e+01  1.06237970e+01  1.08058730e+01  1.11194560e+01  1.19783670e+01  1.15592460e+01  1.23048120e+01  1.18847180e+01  1.11296560e+01  1.09903070e+01
      1.08171460e+01  9.73365300e+00  1.08487200e+01  1.08058730e+01  1.06373990e+01  1.11904510e+01  1.19741740e+01  1.25713880e+01  1.19085890e+01  1.17806770e+01
      1.07336060e+01  1.09151970e+01  1.04184090e+01  1.08171460e+01  1.14070320e+01  1.11194560e+01  1.11904510e+01  1.13971680e+01  1.21057750e+01  1.16614680e+01
      1.14500520e+01  1.13028630e+01  1.14376690e+01  1.10587200e+01  1.09151970e+01  1.09903070e+01  1.18059150e+01  1.19783670e+01  1.19741740e+01  1.21057750e+01
      1.17258020e+01  1.19784700e+01  1.20807270e+01  1.21650680e+01  1.21400780e+01  1.14376690e+01  1.07336060e+01  1.11296560e+01  1.19119370e+01  1.15592460e+01