   8   8   1   0
  0.1531586E+02  0.5261559E-09  0.5261559E-09  0.5360907E-09  0.5000000E-16
  1.000000000000000E-004
  CAR 
 matgen-scf                              
     16.30456813     -5.61560647  301      9.12313147      1.00000000
     -5.616  0.0000E+00  0.0000E+00
     -5.543  0.0000E+00  0.0000E+00
     -5.469  0.0000E+00  0.0000E+00
     -5.396  0.0000E+00  0.0000E+00
     -5.323  0.0000E+00  0.0000E+00
     -5.250  0.0000E+00  0.0000E+00
     -5.177  0.0000E+00  0.0000E+00
     -5.104  0.0000E+00  0.0000E+00
     -5.031  0.0000E+00  0.0000E+00
     -4.958  0.0000E+00  0.0000E+00
     -4.885  0.6003E-15  0.4386E-16
     -4.812  0.5371E-09  0.3924E-10
     -4.739  0.7717E-05  0.5639E-06
     -4.666  0.2430E-02  0.1781E-03
     -4.593  0.5439E-01  0.4152E-02
     -4.520  0.2185E+00  0.2012E-01
     -4.447  0.3131E+00  0.4300E-01
     -4.373  0.4187E+00  0.7359E-01
     -4.300  0.4649E+00  0.1076E+00
     -4.227  0.5255E+00  0.1460E+00
     -4.154  0.7277E+00  0.1991E+00
     -4.081  0.4031E+00  0.2286E+00
     -4.008  0.6924E+00  0.2792E+00
     -3.935  0.8920E+00  0.3443E+00
     -3.862  0.8780E+00  0.4085E+00
     -3.789  0.5671E+00  0.4499E+00
     -3.716  0.7801E+00  0.5069E+00
     -3.643  0.1021E+01  0.5816E+00
     -3.570  0.8635E+00  0.6447E+00
     -3.497  0.8875E+00  0.7095E+00
     -3.424  0.1233E+01  0.7996E+00
     -3.351  0.8659E+00  0.8629E+00
     -3.277  0.9991E+00  0.9359E+00
     -3.204  0.1172E+01  0.1021E+01
     -3.131  0.8893E+00  0.1086E+01
     -3.058  0.1109E+01  0.1167E+01
     -2.985  0.1402E+01  0.1270E+01
     -2.912  0.1316E+01  0.1366E+01
     -2.839  0.9862E+00  0.1438E+01
     -2.766  0.1044E+01  0.1514E+01
     -2.693  0.1453E+01  0.1621E+01
     -2.620  0.1282E+01  0.1714E+01
     -2.547  0.1245E+01  0.1805E+01
     -2.474  0.1181E+01  0.1891E+01
     -2.401  0.1165E+01  0.1977E+01
     -2.328  0.1564E+01  0.2091E+01
     -2.255  0.1375E+01  0.2191E+01
     -2.181  0.1488E+01  0.2300E+01
     -2.108  0.1405E+01  0.2403E+01
     -2.035  0.1597E+01  0.2519E+01
     -1.962  0.1710E+01  0.2644E+01
     -1.889  0.1300E+01  0.2739E+01
     -1.816  0.1086E+01  0.2819E+01
     -1.743  0.1657E+01  0.2940E+01
     -1.670  0.1588E+01  0.3056E+01
     -1.597  0.1708E+01  0.3181E+01
     -1.524  0.1622E+01  0.3299E+01
     -1.451  0.1710E+01  0.3424E+01
     -1.378  0.1761E+01  0.3553E+01
     -1.305  0.1605E+01  0.3670E+01
     -1.232  0.1703E+01  0.3794E+01
     -1.159  0.1358E+01  0.3894E+01
     -1.085  0.1903E+01  0.4033E+01
     -1.012  0.2227E+01  0.4195E+01
     -0.939  0.1583E+01  0.4311E+01
     -0.866  0.1390E+01  0.4413E+01
     -0.793  0.1513E+01  0.4523E+01
     -0.720  0.2076E+01  0.4675E+01
     -0.647  0.2356E+01  0.4847E+01
     -0.574  0.1590E+01  0.4963E+01
     -0.501  0.1921E+01  0.5104E+01
     -0.428  0.1892E+01  0.5242E+01
     -0.355  0.1976E+01  0.5386E+01
     -0.282  0.1975E+01  0.5531E+01
     -0.209  0.2047E+01  0.5680E+01
     -0.136  0.1891E+01  0.5818E+01
     -0.062  0.2199E+01  0.5979E+01
      0.011  0.2152E+01  0.6136E+01
      0.084  0.1912E+01  0.6276E+01
      0.157  0.2084E+01  0.6428E+01
      0.230  0.2061E+01  0.6579E+01
      0.303  0.2071E+01  0.6730E+01
      0.376  0.1995E+01  0.6876E+01
      0.449  0.1842E+01  0.7011E+01
      0.522  0.2705E+01  0.7208E+01
      0.595  0.2655E+01  0.7402E+01
      0.668  0.2630E+01  0.7594E+01
      0.741  0.2272E+01  0.7760E+01
      0.814  0.1953E+01  0.7903E+01
      0.887  0.2436E+01  0.8081E+01
      0.960  0.2447E+01  0.8260E+01
      1.034  0.2163E+01  0.8418E+01
      1.107  0.2066E+01  0.8569E+01
      1.180  0.2501E+01  0.8752E+01
      1.253  0.2210E+01  0.8913E+01
      1.326  0.2085E+01  0.9065E+01
      1.399  0.2762E+01  0.9267E+01
      1.472  0.2171E+01  0.9426E+01
      1.545  0.2871E+01  0.9636E+01
      1.618  0.2942E+01  0.9851E+01
      1.691  0.2869E+01  0.1006E+02
      1.764  0.2014E+01  0.1021E+02
      1.837  0.2502E+01  0.1039E+02
      1.910  0.2339E+01  0.1056E+02
      1.983  0.1593E+01  0.1068E+02
      2.056  0.1743E+01  0.1080E+02
      2.130  0.2223E+01  0.1097E+02
      2.203  0.2112E+01  0.1112E+02
      2.276  0.2160E+01  0.1128E+02
      2.349  0.1734E+01  0.1141E+02
      2.422  0.1619E+01  0.1152E+02
      2.495  0.2189E+01  0.1168E+02
      2.568  0.1860E+01  0.1182E+02
      2.641  0.2561E+01  0.1201E+02
      2.714  0.2494E+01  0.1219E+02
      2.787  0.2506E+01  0.1237E+02
      2.860  0.2648E+01  0.1257E+02
      2.933  0.2617E+01  0.1276E+02
      3.006  0.2752E+01  0.1296E+02
      3.079  0.2538E+01  0.1314E+02
      3.152  0.1842E+01  0.1328E+02
      3.226  0.2719E+01  0.1348E+02
      3.299  0.2512E+01  0.1366E+02
      3.372  0.2098E+01  0.1381E+02
      3.445  0.2048E+01  0.1396E+02
      3.518  0.2419E+01  0.1414E+02
      3.591  0.2370E+01  0.1431E+02
      3.664  0.2492E+01  0.1450E+02
      3.737  0.3069E+01  0.1472E+02
      3.810  0.2738E+01  0.1492E+02
      3.883  0.2466E+01  0.1510E+02
      3.956  0.2466E+01  0.1528E+02
      4.029  0.2280E+01  0.1545E+02
      4.102  0.3215E+01  0.1568E+02
      4.175  0.3010E+01  0.1590E+02
      4.248  0.2544E+01  0.1609E+02
      4.322  0.2711E+01  0.1629E+02
      4.395  0.2634E+01  0.1648E+02
      4.468  0.2462E+01  0.1666E+02
      4.541  0.3032E+01  0.1688E+02
      4.614  0.2767E+01  0.1708E+02
      4.687  0.2845E+01  0.1729E+02
      4.760  0.3706E+01  0.1756E+02
      4.833  0.3552E+01  0.1782E+02
      4.906  0.2729E+01  0.1802E+02
      4.979  0.2652E+01  0.1821E+02
      5.052  0.3336E+01  0.1846E+02
      5.125  0.2690E+01  0.1865E+02
      5.198  0.3145E+01  0.1888E+02
      5.271  0.2719E+01  0.1908E+02
      5.344  0.3220E+01  0.1932E+02
      5.418  0.3246E+01  0.1955E+02
      5.491  0.2748E+01  0.1976E+02
      5.564  0.2645E+01  0.1995E+02
      5.637  0.3126E+01  0.2018E+02
      5.710  0.3320E+01  0.2042E+02
      5.783  0.3276E+01  0.2066E+02
      5.856  0.3016E+01  0.2088E+02
      5.929  0.4084E+01  0.2118E+02
      6.002  0.3677E+01  0.2145E+02
      6.075  0.2748E+01  0.2165E+02
      6.148  0.3239E+01  0.2188E+02
      6.221  0.3435E+01  0.2213E+02
      6.294  0.3423E+01  0.2238E+02
      6.367  0.3025E+01  0.2261E+02
      6.440  0.4139E+01  0.2291E+02
      6.514  0.3718E+01  0.2318E+02
      6.587  0.3405E+01  0.2343E+02
      6.660  0.3336E+01  0.2367E+02
      6.733  0.3817E+01  0.2395E+02
      6.806  0.3919E+01  0.2424E+02
      6.879  0.4016E+01  0.2453E+02
      6.952  0.4121E+01  0.2483E+02
      7.025  0.3489E+01  0.2509E+02
      7.098  0.3635E+01  0.2535E+02
      7.171  0.3904E+01  0.2564E+02
      7.244  0.4120E+01  0.2594E+02
      7.317  0.4243E+01  0.2625E+02
      7.390  0.3882E+01  0.2653E+02
      7.463  0.4024E+01  0.2683E+02
      7.536  0.3463E+01  0.2708E+02
      7.610  0.4893E+01  0.2744E+02
      7.683  0.4596E+01  0.2777E+02
      7.756  0.3439E+01  0.2802E+02
      7.829  0.3198E+01  0.2826E+02
      7.902  0.3376E+01  0.2850E+02
      7.975  0.3293E+01  0.2875E+02
      8.048  0.3373E+01  0.2899E+02
      8.121  0.3123E+01  0.2922E+02
      8.194  0.2921E+01  0.2943E+02
      8.267  0.2537E+01  0.2962E+02
      8.340  0.2781E+01  0.2982E+02
      8.413  0.2553E+01  0.3001E+02
      8.486  0.2656E+01  0.3020E+02
      8.559  0.2665E+01  0.3040E+02
      8.633  0.2714E+01  0.3060E+02
      8.706  0.3123E+01  0.3082E+02
      8.779  0.3353E+01  0.3107E+02
      8.852  0.3453E+01  0.3132E+02
      8.925  0.3488E+01  0.3158E+02
      8.998  0.2936E+01  0.3179E+02
      9.071  0.1673E+01  0.3191E+02
      9.144  0.1830E+01  0.3205E+02
      9.217  0.3155E+01  0.3228E+02
      9.290  0.3173E+01  0.3251E+02
      9.363  0.3300E+01  0.3275E+02
      9.436  0.2597E+01  0.3294E+02
      9.509  0.2577E+01  0.3313E+02
      9.582  0.2768E+01  0.3333E+02
      9.655  0.2242E+01  0.3349E+02
      9.729  0.2303E+01  0.3366E+02
      9.802  0.2517E+01  0.3385E+02
      9.875  0.2781E+01  0.3405E+02
      9.948  0.2734E+01  0.3425E+02
     10.021  0.2999E+01  0.3447E+02
     10.094  0.3535E+01  0.3473E+02
     10.167  0.3646E+01  0.3499E+02
     10.240  0.3506E+01  0.3525E+02
     10.313  0.3596E+01  0.3551E+02
     10.386  0.3654E+01  0.3578E+02
     10.459  0.3830E+01  0.3606E+02
     10.532  0.2692E+01  0.3626E+02
     10.605  0.1973E+01  0.3640E+02
     10.678  0.2529E+01  0.3658E+02
     10.751  0.3391E+01  0.3683E+02
     10.825  0.3713E+01  0.3710E+02
     10.898  0.3487E+01  0.3736E+02
     10.971  0.3022E+01  0.3758E+02
     11.044  0.3058E+01  0.3780E+02
     11.117  0.3641E+01  0.3807E+02
     11.190  0.3639E+01  0.3833E+02
     11.263  0.3053E+01  0.3856E+02
     11.336  0.3333E+01  0.3880E+02
     11.409  0.3918E+01  0.3909E+02
     11.482  0.4298E+01  0.3940E+02
     11.555  0.4229E+01  0.3971E+02
     11.628  0.3542E+01  0.3997E+02
     11.701  0.4268E+01  0.4028E+02
     11.774  0.3638E+01  0.4055E+02
     11.847  0.3774E+01  0.4082E+02
     11.921  0.3959E+01  0.4111E+02
     11.994  0.3748E+01  0.4139E+02
     12.067  0.3356E+01  0.4163E+02
     12.140  0.3280E+01  0.4187E+02
     12.213  0.3422E+01  0.4212E+02
     12.286  0.3072E+01  0.4235E+02
     12.359  0.4240E+01  0.4266E+02
     12.432  0.3004E+01  0.4287E+02
     12.505  0.4339E+01  0.4319E+02
     12.578  0.5103E+01  0.4356E+02
     12.651  0.3737E+01  0.4384E+02
     12.724  0.4332E+01  0.4415E+02
     12.797  0.4114E+01  0.4445E+02
     12.870  0.4159E+01  0.4476E+02
     12.943  0.3672E+01  0.4503E+02
     13.017  0.3303E+01  0.4527E+02
     13.090  0.3752E+01  0.4554E+02
     13.163  0.2647E+01  0.4574E+02
     13.236  0.2826E+01  0.4594E+02
     13.309  0.3298E+01  0.4618E+02
     13.382  0.2857E+01  0.4639E+02
     13.455  0.3214E+01  0.4663E+02
     13.528  0.2509E+01  0.4681E+02
     13.601  0.1768E+01  0.4694E+02
     13.674  0.1879E+01  0.4708E+02
     13.747  0.1847E+01  0.4721E+02
     13.820  0.1567E+01  0.4733E+02
     13.893  0.1043E+01  0.4740E+02
     13.966  0.1225E+01  0.4749E+02
     14.039  0.1318E+01  0.4759E+02
     14.113  0.1237E+01  0.4768E+02
     14.186  0.1362E+01  0.4778E+02
     14.259  0.7227E+00  0.4783E+02
     14.332  0.2697E+00  0.4785E+02
     14.405  0.2562E+00  0.4787E+02
     14.478  0.4447E+00  0.4790E+02
     14.551  0.2123E+00  0.4792E+02
     14.624  0.5668E-01  0.4792E+02
     14.697  0.6203E-01  0.4793E+02
     14.770  0.2281E-01  0.4793E+02
     14.843  0.1671E-01  0.4793E+02
     14.916  0.1547E+00  0.4794E+02
     14.989  0.2643E+00  0.4796E+02
     15.062  0.8901E-01  0.4797E+02
     15.135  0.5973E-01  0.4797E+02
     15.209  0.1517E+00  0.4798E+02
     15.282  0.1746E+00  0.4799E+02
     15.355  0.7477E-01  0.4800E+02
     15.428  0.8059E-02  0.4800E+02
     15.501  0.3044E-04  0.4800E+02
     15.574  0.2146E-08  0.4800E+02
     15.647  0.2401E-14  0.4800E+02
     15.720  0.0000E+00  0.4800E+02
     15.793  0.0000E+00  0.4800E+02
     15.866  0.0000E+00  0.4800E+02
     15.939  0.0000E+00  0.4800E+02
     16.012  0.0000E+00  0.4800E+02
     16.085  0.0000E+00  0.4800E+02
     16.158  0.0000E+00  0.4800E+02
     16.232  0.0000E+00  0.4800E+02
     16.305  0.0000E+00  0.4800E+02
     16.30456813     -5.61560647  301      9.12313147      1.00000000
     -5.616  0.0000E+00  0.0000E+00  0.0000E+00  0.0000E+00  0.0000E+00  0.0000E+00  0.0000E+00  0.0000E+00  0.0000E+00
     -5.543  0.0000E+00  0.0000E+00  0.0000E+00  0.0000E+00  0.0000E+00  0.0000E+00  0.0000E+00  0.0000E+00  0.0000E+00
     -5.469  0.0000E+00  0.0000E+00  0.0000E+00  0.0000E+00  0.0000E+00  0.0000E+00  0.0000E+00  0.0000E+00  0.0000E+00
     -5.396  0.0000E+00  0.0000E+00  0.0000E+00  0.0000E+00  0.0000E+00  0.0000E+00  0.0000E+00  0.0000E+00  0.0000E+00
     -5.323  0.0000E+00  0.0000E+00  0.0000E+00  0.0000E+00  0.0000E+00  0.0000E+00  0.0000E+00  0.0000E+00  0.0000E+00
     -5.250  0.0000E+00  0.0000E+00  0.0000E+00  0.0000E+00  0.0000E+00  0.0000E+00  0.0000E+00  0.0000E+00  0.0000E+00
     -5.177  0.0000E+00  0.0000E+00  0.0000E+00  0.0000E+00  0.0000E+00  0.0000E+00  0.0000E+00  0.0000E+00  0.0000E+00
     -5.104  0.0000E+00  0.0000E+00  0.0000E+00  0.0000E+00  0.0000E+00  0.0000E+00  0.0000E+00  0.0000E+00  0.0000E+00
     -5.031  0.0000E+00  0.0000E+00  0.0000E+00  0.0000E+00  0.0000E+00  0.0000E+00  0.0000E+00  0.0000E+00  0.0000E+00
     -4.958  0.0000E+00  0.0000E+00  0.0000E+00  0.0000E+00  0.0000E+00  0.0000E+00  0.0000E+00  0.0000E+00  0.0000E+00
     -4.885  0.3123E-16  0.2374E-28  0.4949E-21  0.2848E-25  0.0000E+00  0.0000E+00  0.0000E+00  0.0000E+00  0.0000E+00
     -4.812  0.2794E-10  0.4536E-16  0.4455E-15  0.2314E-16  0.0000E+00  0.0000E+00  0.0000E+00  0.0000E+00  0.0000E+00
     -4.739  0.4015E-06  0.9144E-11  0.7641E-11  0.6429E-11  0.0000E+00  0.0000E+00  0.0000E+00  0.0000E+00  0.0000E+00
     -4.666  0.1264E-03  0.3097E-07  0.1195E-07  0.2921E-07  0.0000E+00  0.0000E+00  0.0000E+00  0.0000E+00  0.0000E+00
     -4.593  0.2826E-02  0.2334E-05  0.1890E-05  0.2785E-05  0.0000E+00  0.0000E+00  0.0000E+00  0.0000E+00  0.0000E+00
     -4.520  0.1133E-01  0.1411E-04  0.2562E-04  0.1745E-04  0.0000E+00  0.0000E+00  0.0000E+00  0.0000E+00  0.0000E+00
     -4.447  0.1621E-01  0.4492E-04  0.4214E-04  0.4957E-04  0.0000E+00  0.0000E+00  0.0000E+00  0.0000E+00  0.0000E+00
     -4.373  0.2161E-01  0.8677E-04  0.8807E-04  0.1126E-03  0.0000E+00  0.0000E+00  0.0000E+00  0.0000E+00  0.0000E+00
     -4.300  0.2391E-01  0.9320E-04  0.2055E-03  0.1202E-03  0.0000E+00  0.0000E+00  0.0000E+00  0.0000E+00  0.0000E+00
     -4.227  0.2702E-01  0.2093E-03  0.1986E-03  0.1958E-03  0.0000E+00  0.0000E+00  0.0000E+00  0.0000E+00  0.0000E+00
     -4.154  0.3728E-01  0.2674E-03  0.3179E-03  0.3838E-03  0.0000E+00  0.0000E+00  0.0000E+00  0.0000E+00  0.0000E+00
     -4.081  0.2060E-01  0.1611E-03  0.1849E-03  0.2790E-03  0.0000E+00  0.0000E+00  0.0000E+00  0.0000E+00  0.0000E+00
     -4.008  0.3532E-01  0.3829E-03  0.5706E-03  0.3265E-03  0.0000E+00  0.0000E+00  0.0000E+00  0.0000E+00  0.0000E+00
     -3.935  0.4552E-01  0.5720E-03  0.6390E-03  0.5690E-03  0.0000E+00  0.0000E+00  0.0000E+00  0.0000E+00  0.0000E+00
     -3.862  0.4444E-01  0.4146E-03  0.7440E-03  0.8253E-03  0.0000E+00  0.0000E+00  0.0000E+00  0.0000E+00  0.0000E+00
     -3.789  0.2882E-01  0.3978E-03  0.4842E-03  0.4904E-03  0.0000E+00  0.0000E+00  0.0000E+00  0.0000E+00  0.0000E+00
     -3.716  0.3956E-01  0.6594E-03  0.7320E-03  0.7240E-03  0.0000E+00  0.0000E+00  0.0000E+00  0.0000E+00  0.0000E+00
     -3.643  0.5190E-01  0.8987E-03  0.9657E-03  0.1052E-02  0.0000E+00  0.0000E+00  0.0000E+00  0.0000E+00  0.0000E+00
     -3.570  0.4393E-01  0.7840E-03  0.1057E-02  0.7916E-03  0.0000E+00  0.0000E+00  0.0000E+00  0.0000E+00  0.0000E+00
     -3.497  0.4449E-01  0.6190E-03  0.1090E-02  0.1292E-02  0.0000E+00  0.0000E+00  0.0000E+00  0.0000E+00  0.0000E+00
     -3.424  0.6227E-01  0.1163E-02  0.1855E-02  0.1333E-02  0.0000E+00  0.0000E+00  0.0000E+00  0.0000E+00  0.0000E+00
     -3.351  0.4377E-01  0.7799E-03  0.1297E-02  0.1134E-02  0.0000E+00  0.0000E+00  0.0000E+00  0.0000E+00  0.0000E+00
     -3.277  0.5073E-01  0.1049E-02  0.1376E-02  0.1516E-02  0.0000E+00  0.0000E+00  0.0000E+00  0.0000E+00  0.0000E+00
     -3.204  0.6066E-01  0.1368E-02  0.1516E-02  0.1793E-02  0.0000E+00  0.0000E+00  0.0000E+00  0.0000E+00  0.0000E+00
     -3.131  0.4727E-01  0.1177E-02  0.1227E-02  0.1200E-02  0.0000E+00  0.0000E+00  0.0000E+00  0.0000E+00  0.0000E+00
     -3.058  0.5774E-01  0.1295E-02  0.1743E-02  0.1837E-02  0.0000E+00  0.0000E+00  0.0000E+00  0.0000E+00  0.0000E+00
     -2.985  0.7128E-01  0.1249E-02  0.2894E-02  0.2523E-02  0.0000E+00  0.0000E+00  0.0000E+00  0.0000E+00  0.0000E+00
     -2.912  0.6825E-01  0.1043E-02  0.2892E-02  0.2470E-02  0.0000E+00  0.0000E+00  0.0000E+00  0.0000E+00  0.0000E+00
     -2.839  0.5361E-01  0.7373E-03  0.2068E-02  0.1921E-02  0.0000E+00  0.0000E+00  0.0000E+00  0.0000E+00  0.0000E+00
     -2.766  0.5345E-01  0.1661E-02  0.1964E-02  0.2046E-02  0.0000E+00  0.0000E+00  0.0000E+00  0.0000E+00  0.0000E+00
     -2.693  0.7289E-01  0.2052E-02  0.3615E-02  0.2616E-02  0.0000E+00  0.0000E+00  0.0000E+00  0.0000E+00  0.0000E+00
     -2.620  0.6493E-01  0.2226E-02  0.2746E-02  0.2500E-02  0.0000E+00  0.0000E+00  0.0000E+00  0.0000E+00  0.0000E+00
     -2.547  0.5463E-01  0.2759E-02  0.2206E-02  0.3205E-02  0.0000E+00  0.0000E+00  0.0000E+00  0.0000E+00  0.0000E+00
     -2.474  0.5399E-01  0.2015E-02  0.2614E-02  0.3156E-02  0.0000E+00  0.0000E+00  0.0000E+00  0.0000E+00  0.0000E+00
     -2.401  0.5701E-01  0.1562E-02  0.2886E-02  0.3285E-02  0.0000E+00  0.0000E+00  0.0000E+00  0.0000E+00  0.0000E+00
     -2.328  0.7486E-01  0.2940E-02  0.4334E-02  0.3487E-02  0.0000E+00  0.0000E+00  0.0000E+00  0.0000E+00  0.0000E+00
     -2.255  0.6384E-01  0.2989E-02  0.3710E-02  0.3139E-02  0.0000E+00  0.0000E+00  0.0000E+00  0.0000E+00  0.0000E+00
     -2.181  0.7017E-01  0.3317E-02  0.4581E-02  0.3094E-02  0.0000E+00  0.0000E+00  0.0000E+00  0.0000E+00  0.0000E+00
     -2.108  0.6115E-01  0.3910E-02  0.3774E-02  0.3200E-02  0.0000E+00  0.0000E+00  0.0000E+00  0.0000E+00  0.0000E+00
     -2.035  0.6500E-01  0.4108E-02  0.4722E-02  0.4024E-02  0.0000E+00  0.0000E+00  0.0000E+00  0.0000E+00  0.0000E+00
     -1.962  0.7780E-01  0.3595E-02  0.4563E-02  0.5490E-02  0.0000E+00  0.0000E+00  0.0000E+00  0.0000E+00  0.0000E+00
     -1.889  0.6021E-01  0.3545E-02  0.3220E-02  0.3709E-02  0.0000E+00  0.0000E+00  0.0000E+00  0.0000E+00  0.0000E+00
     -1.816  0.4997E-01  0.2284E-02  0.3429E-02  0.3365E-02  0.0000E+00  0.0000E+00  0.0000E+00  0.0000E+00  0.0000E+00
     -1.743  0.7455E-01  0.3275E-02  0.5555E-02  0.5397E-02  0.0000E+00  0.0000E+00  0.0000E+00  0.0000E+00  0.0000E+00
     -1.670  0.6845E-01  0.5112E-02  0.4759E-02  0.4232E-02  0.0000E+00  0.0000E+00  0.0000E+00  0.0000E+00  0.0000E+00
     -1.597  0.6655E-01  0.6909E-02  0.3661E-02  0.4892E-02  0.0000E+00  0.0000E+00  0.0000E+00  0.0000E+00  0.0000E+00
     -1.524  0.6779E-01  0.4055E-02  0.5920E-02  0.5166E-02  0.0000E+00  0.0000E+00  0.0000E+00  0.0000E+00  0.0000E+00
     -1.451  0.7606E-01  0.4435E-02  0.6992E-02  0.4915E-02  0.0000E+00  0.0000E+00  0.0000E+00  0.0000E+00  0.0000E+00
     -1.378  0.7765E-01  0.5419E-02  0.6616E-02  0.4705E-02  0.0000E+00  0.0000E+00  0.0000E+00  0.0000E+00  0.0000E+00
     -1.305  0.6728E-01  0.4067E-02  0.5938E-02  0.5572E-02  0.0000E+00  0.0000E+00  0.0000E+00  0.0000E+00  0.0000E+00
     -1.232  0.7098E-01  0.5133E-02  0.5730E-02  0.5704E-02  0.0000E+00  0.0000E+00  0.0000E+00  0.0000E+00  0.0000E+00
     -1.159  0.5530E-01  0.4892E-02  0.4321E-02  0.4170E-02  0.0000E+00  0.0000E+00  0.0000E+00  0.0000E+00  0.0000E+00
     -1.085  0.7654E-01  0.6290E-02  0.6644E-02  0.6393E-02  0.0000E+00  0.0000E+00  0.0000E+00  0.0000E+00  0.0000E+00
     -1.012  0.9541E-01  0.6666E-02  0.7777E-02  0.8334E-02  0.0000E+00  0.0000E+00  0.0000E+00  0.0000E+00  0.0000E+00
     -0.939  0.6639E-01  0.5925E-02  0.6072E-02  0.4664E-02  0.0000E+00  0.0000E+00  0.0000E+00  0.0000E+00  0.0000E+00
     -0.866  0.6039E-01  0.4643E-02  0.5245E-02  0.5224E-02  0.0000E+00  0.0000E+00  0.0000E+00  0.0000E+00  0.0000E+00
     -0.793  0.6006E-01  0.5511E-02  0.4540E-02  0.6379E-02  0.0000E+00  0.0000E+00  0.0000E+00  0.0000E+00  0.0000E+00
     -0.720  0.8663E-01  0.8467E-02  0.7442E-02  0.7004E-02  0.0000E+00  0.0000E+00  0.0000E+00  0.0000E+00  0.0000E+00
     -0.647  0.9681E-01  0.1027E-01  0.9091E-02  0.6397E-02  0.0000E+00  0.0000E+00  0.0000E+00  0.0000E+00  0.0000E+00
     -0.574  0.6224E-01  0.4980E-02  0.6651E-02  0.5639E-02  0.0000E+00  0.0000E+00  0.0000E+00  0.0000E+00  0.0000E+00
     -0.501  0.8160E-01  0.4979E-02  0.9493E-02  0.7324E-02  0.0000E+00  0.0000E+00  0.0000E+00  0.0000E+00  0.0000E+00
     -0.428  0.7402E-01  0.7195E-02  0.6808E-02  0.7131E-02  0.0000E+00  0.0000E+00  0.0000E+00  0.0000E+00  0.0000E+00
     -0.355  0.7698E-01  0.6875E-02  0.8346E-02  0.7208E-02  0.0000E+00  0.0000E+00  0.0000E+00  0.0000E+00  0.0000E+00
     -0.282  0.8812E-01  0.5353E-02  0.1005E-01  0.8600E-02  0.0000E+00  0.0000E+00  0.0000E+00  0.0000E+00  0.0000E+00
     -0.209  0.8685E-01  0.8569E-02  0.7807E-02  0.7821E-02  0.0000E+00  0.0000E+00  0.0000E+00  0.0000E+00  0.0000E+00
     -0.136  0.7231E-01  0.8965E-02  0.7661E-02  0.6138E-02  0.0000E+00  0.0000E+00  0.0000E+00  0.0000E+00  0.0000E+00
     -0.062  0.8434E-01  0.9423E-02  0.9786E-02  0.7583E-02  0.0000E+00  0.0000E+00  0.0000E+00  0.0000E+00  0.0000E+00
      0.011  0.8376E-01  0.1078E-01  0.8163E-02  0.7206E-02  0.0000E+00  0.0000E+00  0.0000E+00  0.0000E+00  0.0000E+00
      0.084  0.8298E-01  0.8262E-02  0.6251E-02  0.8091E-02  0.0000E+00  0.0000E+00  0.0000E+00  0.0000E+00  0.0000E+00
      0.157  0.8724E-01  0.7549E-02  0.8804E-02  0.8216E-02  0.0000E+00  0.0000E+00  0.0000E+00  0.0000E+00  0.0000E+00
      0.230  0.8393E-01  0.8165E-02  0.9342E-02  0.8835E-02  0.0000E+00  0.0000E+00  0.0000E+00  0.0000E+00  0.0000E+00
      0.303  0.8029E-01  0.8315E-02  0.8259E-02  0.8533E-02  0.0000E+00  0.0000E+00  0.0000E+00  0.0000E+00  0.0000E+00
      0.376  0.7985E-01  0.5659E-02  0.1059E-01  0.7268E-02  0.0000E+00  0.0000E+00  0.0000E+00  0.0000E+00  0.0000E+00
      0.449  0.7627E-01  0.6445E-02  0.9706E-02  0.6557E-02  0.0000E+00  0.0000E+00  0.0000E+00  0.0000E+00  0.0000E+00
      0.522  0.1137E+00  0.1213E-01  0.1215E-01  0.1001E-01  0.0000E+00  0.0000E+00  0.0000E+00  0.0000E+00  0.0000E+00
      0.595  0.1111E+00  0.1153E-01  0.1183E-01  0.9525E-02  0.0000E+00  0.0000E+00  0.0000E+00  0.0000E+00  0.0000E+00
      0.668  0.1086E+00  0.1235E-01  0.1088E-01  0.7915E-02  0.0000E+00  0.0000E+00  0.0000E+00  0.0000E+00  0.0000E+00
      0.741  0.8788E-01  0.1134E-01  0.9989E-02  0.7658E-02  0.0000E+00  0.0000E+00  0.0000E+00  0.0000E+00  0.0000E+00
      0.814  0.7247E-01  0.1075E-01  0.7814E-02  0.5843E-02  0.0000E+00  0.0000E+00  0.0000E+00  0.0000E+00  0.0000E+00
      0.887  0.1033E+00  0.9301E-02  0.1252E-01  0.9958E-02  0.0000E+00  0.0000E+00  0.0000E+00  0.0000E+00  0.0000E+00
      0.960  0.1085E+00  0.8309E-02  0.1473E-01  0.1107E-01  0.0000E+00  0.0000E+00  0.0000E+00  0.0000E+00  0.0000E+00
      1.034  0.9399E-01  0.8834E-02  0.1049E-01  0.8819E-02  0.0000E+00  0.0000E+00  0.0000E+00  0.0000E+00  0.0000E+00
      1.107  0.8927E-01  0.9333E-02  0.7951E-02  0.8489E-02  0.0000E+00  0.0000E+00  0.0000E+00  0.0000E+00  0.0000E+00
      1.180  0.9189E-01  0.1195E-01  0.1177E-01  0.7534E-02  0.0000E+00  0.0000E+00  0.0000E+00  0.0000E+00  0.0000E+00
      1.253  0.7775E-01  0.1189E-01  0.1064E-01  0.7178E-02  0.0000E+00  0.0000E+00  0.0000E+00  0.0000E+00  0.0000E+00
      1.326  0.8813E-01  0.8558E-02  0.1124E-01  0.7442E-02  0.0000E+00  0.0000E+00  0.0000E+00  0.0000E+00  0.0000E+00
      1.399  0.1208E+00  0.1359E-01  0.1204E-01  0.9714E-02  0.0000E+00  0.0000E+00  0.0000E+00  0.0000E+00  0.0000E+00
      1.472  0.8706E-01  0.1183E-01  0.8416E-02  0.8216E-02  0.0000E+00  0.0000E+00  0.0000E+00  0.0000E+00  0.0000E+00
      1.545  0.1120E+00  0.1257E-01  0.1376E-01  0.8897E-02  0.0000E+00  0.0000E+00  0.0000E+00  0.0000E+00  0.0000E+00
      1.618  0.1220E+00  0.1131E-01  0.1610E-01  0.1091E-01  0.0000E+00  0.0000E+00  0.0000E+00  0.0000E+00  0.0000E+00
      1.691  0.1175E+00  0.1323E-01  0.1393E-01  0.1115E-01  0.0000E+00  0.0000E+00  0.0000E+00  0.0000E+00  0.0000E+00
      1.764  0.8499E-01  0.7929E-02  0.1099E-01  0.7847E-02  0.0000E+00  0.0000E+00  0.0000E+00  0.0000E+00  0.0000E+00
      1.837  0.1068E+00  0.9074E-02  0.1392E-01  0.8390E-02  0.0000E+00  0.0000E+00  0.0000E+00  0.0000E+00  0.0000E+00
      1.910  0.9630E-01  0.8818E-02  0.1256E-01  0.8610E-02  0.0000E+00  0.0000E+00  0.0000E+00  0.0000E+00  0.0000E+00
      1.983  0.6277E-01  0.6702E-02  0.8028E-02  0.5948E-02  0.0000E+00  0.0000E+00  0.0000E+00  0.0000E+00  0.0000E+00
      2.056  0.7021E-01  0.8171E-02  0.8762E-02  0.7058E-02  0.0000E+00  0.0000E+00  0.0000E+00  0.0000E+00  0.0000E+00
      2.130  0.8898E-01  0.9652E-02  0.1274E-01  0.8744E-02  0.0000E+00  0.0000E+00  0.0000E+00  0.0000E+00  0.0000E+00
      2.203  0.7820E-01  0.1143E-01  0.1027E-01  0.8975E-02  0.0000E+00  0.0000E+00  0.0000E+00  0.0000E+00  0.0000E+00
      2.276  0.8317E-01  0.1187E-01  0.9938E-02  0.1201E-01  0.0000E+00  0.0000E+00  0.0000E+00  0.0000E+00  0.0000E+00
      2.349  0.6984E-01  0.7094E-02  0.9958E-02  0.1212E-01  0.0000E+00  0.0000E+00  0.0000E+00  0.0000E+00  0.0000E+00
      2.422  0.5443E-01  0.8361E-02  0.1047E-01  0.9875E-02  0.0000E+00  0.0000E+00  0.0000E+00  0.0000E+00  0.0000E+00
      2.495  0.6915E-01  0.9981E-02  0.1865E-01  0.1466E-01  0.0000E+00  0.0000E+00  0.0000E+00  0.0000E+00  0.0000E+00
      2.568  0.6012E-01  0.9739E-02  0.1196E-01  0.1400E-01  0.0000E+00  0.0000E+00  0.0000E+00  0.0000E+00  0.0000E+00
      2.641  0.9497E-01  0.1711E-01  0.1203E-01  0.1340E-01  0.0000E+00  0.0000E+00  0.0000E+00  0.0000E+00  0.0000E+00
      2.714  0.8424E-01  0.1646E-01  0.1412E-01  0.1714E-01  0.0000E+00  0.0000E+00  0.0000E+00  0.0000E+00  0.0000E+00
      2.787  0.6634E-01  0.1673E-01  0.2311E-01  0.2011E-01  0.0000E+00  0.0000E+00  0.0000E+00  0.0000E+00  0.0000E+00
      2.860  0.7606E-01  0.1782E-01  0.1960E-01  0.2194E-01  0.0000E+00  0.0000E+00  0.0000E+00  0.0000E+00  0.0000E+00
      2.933  0.6677E-01  0.2002E-01  0.2215E-01  0.2089E-01  0.0000E+00  0.0000E+00  0.0000E+00  0.0000E+00  0.0000E+00
      3.006  0.7585E-01  0.1889E-01  0.2522E-01  0.2516E-01  0.0000E+00  0.0000E+00  0.0000E+00  0.0000E+00  0.0000E+00
      3.079  0.7583E-01  0.1427E-01  0.2366E-01  0.2078E-01  0.0000E+00  0.0000E+00  0.0000E+00  0.0000E+00  0.0000E+00
      3.152  0.5335E-01  0.1231E-01  0.1315E-01  0.1375E-01  0.0000E+00  0.0000E+00  0.0000E+00  0.0000E+00  0.0000E+00
      3.226  0.8015E-01  0.1695E-01  0.1749E-01  0.2862E-01  0.0000E+00  0.0000E+00  0.0000E+00  0.0000E+00  0.0000E+00
      3.299  0.7459E-01  0.1759E-01  0.2014E-01  0.2658E-01  0.0000E+00  0.0000E+00  0.0000E+00  0.0000E+00  0.0000E+00
      3.372  0.4965E-01  0.1517E-01  0.2260E-01  0.2060E-01  0.0000E+00  0.0000E+00  0.0000E+00  0.0000E+00  0.0000E+00
      3.445  0.5979E-01  0.1388E-01  0.1671E-01  0.1584E-01  0.0000E+00  0.0000E+00  0.0000E+00  0.0000E+00  0.0000E+00
      3.518  0.6762E-01  0.1304E-01  0.2112E-01  0.2294E-01  0.0000E+00  0.0000E+00  0.0000E+00  0.0000E+00  0.0000E+00
      3.591  0.5412E-01  0.1619E-01  0.2216E-01  0.2233E-01  0.0000E+00  0.0000E+00  0.0000E+00  0.0000E+00  0.0000E+00
      3.664  0.5008E-01  0.2503E-01  0.1942E-01  0.2655E-01  0.0000E+00  0.0000E+00  0.0000E+00  0.0000E+00  0.0000E+00
      3.737  0.6423E-01  0.2821E-01  0.2424E-01  0.3575E-01  0.0000E+00  0.0000E+00  0.0000E+00  0.0000E+00  0.0000E+00
      3.810  0.6121E-01  0.2212E-01  0.2568E-01  0.3264E-01  0.0000E+00  0.0000E+00  0.0000E+00  0.0000E+00  0.0000E+00
      3.883  0.4773E-01  0.2130E-01  0.1927E-01  0.3221E-01  0.0000E+00  0.0000E+00  0.0000E+00  0.0000E+00  0.0000E+00
      3.956  0.4941E-01  0.2322E-01  0.2828E-01  0.2021E-01  0.0000E+00  0.0000E+00  0.0000E+00  0.0000E+00  0.0000E+00
      4.029  0.4120E-01  0.2213E-01  0.2107E-01  0.2505E-01  0.0000E+00  0.0000E+00  0.0000E+00  0.0000E+00  0.0000E+00
      4.102  0.5687E-01  0.3341E-01  0.3256E-01  0.2989E-01  0.0000E+00  0.0000E+00  0.0000E+00  0.0000E+00  0.0000E+00
      4.175  0.5725E-01  0.2810E-01  0.2889E-01  0.3427E-01  0.0000E+00  0.0000E+00  0.0000E+00  0.0000E+00  0.0000E+00
      4.248  0.5400E-01  0.2223E-01  0.2077E-01  0.3222E-01  0.0000E+00  0.0000E+00  0.0000E+00  0.0000E+00  0.0000E+00
      4.322  0.5949E-01  0.2823E-01  0.2364E-01  0.2728E-01  0.0000E+00  0.0000E+00  0.0000E+00  0.0000E+00  0.0000E+00
      4.395  0.5296E-01  0.2676E-01  0.2462E-01  0.2683E-01  0.0000E+00  0.0000E+00  0.0000E+00  0.0000E+00  0.0000E+00
      4.468  0.4282E-01  0.1709E-01  0.3339E-01  0.2621E-01  0.0000E+00  0.0000E+00  0.0000E+00  0.0000E+00  0.0000E+00
      4.541  0.5315E-01  0.2265E-01  0.3986E-01  0.3311E-01  0.0000E+00  0.0000E+00  0.0000E+00  0.0000E+00  0.0000E+00
      4.614  0.4998E-01  0.2783E-01  0.2694E-01  0.2761E-01  0.0000E+00  0.0000E+00  0.0000E+00  0.0000E+00  0.0000E+00
      4.687  0.3945E-01  0.3389E-01  0.3209E-01  0.2658E-01  0.0000E+00  0.0000E+00  0.0000E+00  0.0000E+00  0.0000E+00
      4.760  0.5212E-01  0.4749E-01  0.3919E-01  0.3075E-01  0.0000E+00  0.0000E+00  0.0000E+00  0.0000E+00  0.0000E+00
      4.833  0.5899E-01  0.3274E-01  0.4016E-01  0.3628E-01  0.0000E+00  0.0000E+00  0.0000E+00  0.0000E+00  0.0000E+00
      4.906  0.4760E-01  0.2289E-01  0.2715E-01  0.3707E-01  0.0000E+00  0.0000E+00  0.0000E+00  0.0000E+00  0.0000E+00
      4.979  0.4318E-01  0.2330E-01  0.2477E-01  0.3596E-01  0.0000E+00  0.0000E+00  0.0000E+00  0.0000E+00  0.0000E+00
      5.052  0.5724E-01  0.3355E-01  0.2834E-01  0.4542E-01  0.0000E+00  0.0000E+00  0.0000E+00  0.0000E+00  0.0000E+00
      5.125  0.4778E-01  0.3437E-01  0.2466E-01  0.2713E-01  0.0000E+00  0.0000E+00  0.0000E+00  0.0000E+00  0.0000E+00
      5.198  0.4593E-01  0.3236E-01  0.3329E-01  0.4305E-01  0.0000E+00  0.0000E+00  0.0000E+00  0.0000E+00  0.0000E+00
      5.271  0.3832E-01  0.2302E-01  0.3342E-01  0.3474E-01  0.0000E+00  0.0000E+00  0.0000E+00  0.0000E+00  0.0000E+00
      5.344  0.4656E-01  0.2964E-01  0.3966E-01  0.3321E-01  0.0000E+00  0.0000E+00  0.0000E+00  0.0000E+00  0.0000E+00
      5.418  0.5269E-01  0.2863E-01  0.4761E-01  0.2848E-01  0.0000E+00  0.0000E+00  0.0000E+00  0.0000E+00  0.0000E+00
      5.491  0.4411E-01  0.3246E-01  0.2954E-01  0.2960E-01  0.0000E+00  0.0000E+00  0.0000E+00  0.0000E+00  0.0000E+00
      5.564  0.3877E-01  0.2664E-01  0.2703E-01  0.3862E-01  0.0000E+00  0.0000E+00  0.0000E+00  0.0000E+00  0.0000E+00
      5.637  0.4405E-01  0.3108E-01  0.3711E-01  0.4307E-01  0.0000E+00  0.0000E+00  0.0000E+00  0.0000E+00  0.0000E+00
      5.710  0.4979E-01  0.3337E-01  0.3696E-01  0.4323E-01  0.0000E+00  0.0000E+00  0.0000E+00  0.0000E+00  0.0000E+00
      5.783  0.4136E-01  0.3995E-01  0.3295E-01  0.3793E-01  0.0000E+00  0.0000E+00  0.0000E+00  0.0000E+00  0.0000E+00