    8    8    1    1
  0.1531586E+02  0.5261559E-09  0.5261559E-09  0.5360907E-09  0.5000000E-16
  1.000000000000000E-004
  CAR 
 matgen-scf                              
     32    650     24
 
  0.3742002E-15  0.3742002E-15  0.3742002E-15  0.7716049E-03
    1       -4.619235   1.000000
    2        0.294732   1.000000
    3        0.297716   1.000000
    4        1.445784   1.000000
    5        1.904118   1.000000
    6        2.164437   1.000000
    7        2.443171   1.000000
    8        3.630259   1.000000
    9        3.953002   1.000000
   10        6.222657   1.000000
   11        6.353606   1.000000
   12        6.574449   1.000000
   13        6.709660   1.000000
   14        6.904400   1.000000
   15        7.087307   1.000000
   16        7.166735   1.000000
   17        7.183507   1.000000
   18        7.404327   1.000000
   19        7.469678   1.000000
   20       10.459376   0.000000
   21       10.925014   0.000000
   22       13.980620   0.000000
   23       14.223129   0.000000
   24       15.057149   0.000000
 
  0.8333333E-01  0.3611375E-15  0.3742002E-15  0.1543210E-02
    1       -4.566607   1.000000
    2        0.345311   1.000000
    3        0.345623   1.000000
    4        1.265905   1.000000
    5        1.372476   1.000000
    6        1.966622   1.000000
    7        2.717386   1.000000
    8        3.952155   1.000000
    9        4.535274   1.000000
   10        6.031893   1.000000
   11        6.066371   1.000000
   12        6.084964   1.000000
   13        6.327068   1.000000
   14        6.545536   1.000000
   15        6.620058   1.000000
   16        7.524567   1.000000
   17        7.639772   1.000000
   18        7.945276   1.000000
   19        8.276322   1.000000
   20       10.745974   0.000000
   21       11.209532   0.000000
   22       13.560181   0.000000
   23       14.027403   0.000000
   24       15.166908   0.000000
 
  0.1666667E+00  0.3475747E-15  0.3742002E-15  0.1543210E-02
    1       -4.408856   1.000000
    2        0.385860   1.000000
    3        0.496863   1.000000
    4        0.574368   1.000000
    5        0.970060   1.000000
    6        1.566622   1.000000
    7        3.287015   1.000000
    8        4.653613   1.000000
    9        5.118640   1.000000
   10        5.268224   1.000000
   11        5.542469   1.000000
   12        5.953534   1.000000
   13        5.993319   1.000000
   14        6.183926   1.000000
   15        6.356266   1.000000
   16        8.137775   1.000000
   17        8.167343   1.000000
   18        8.894368   1.000000
   19        9.219673   0.003161
   20       11.519417   0.000000
   21       11.971872   0.000000
   22       12.374825   0.000000
   23       14.108344   0.000000
   24       14.168340   0.000000
 
  0.2500000E+00  0.3062563E-15  0.3742002E-15  0.1543210E-02
    1       -4.146421   1.000000
    2       -0.465562   1.000000
    3        0.722993   1.000000
    4        0.748777   1.000000
    5        0.757355   1.000000
    6        1.191146   1.000000
    7        3.856030   1.000000
    8        4.251806   1.000000
    9        4.565205   1.000000
   10        5.521786   1.000000
   11        5.537703   1.000000
   12        5.731734   1.000000
   13        5.886406   1.000000
   14        6.059114   1.000000
   15        6.987259   1.000000
   16        8.815012   1.000000
   17        8.858992   1.000000
   18        9.843603   0.000000
   19       10.159273   0.000000
   20       11.210475   0.000000
   21       12.610532   0.000000
   22       12.714547   0.000000
   23       13.040128   0.000000
   24       14.407559   0.000000
 
  0.3333333E+00  0.3065713E-15  0.3742002E-15  0.1543210E-02
    1       -3.780071   1.000000
    2       -1.310867   1.000000
    3        0.560097   1.000000
    4        0.845808   1.000000
    5        1.100006   1.000000
    6        1.143246   1.000000
    7        3.449802   1.000000
    8        3.451113   1.000000
    9        4.999236   1.000000
   10        5.392433   1.000000
   11        5.560501   1.000000
   12        5.635840   1.000000
   13        5.798469   1.000000
   14        6.507880   1.000000
   15        7.984070   1.000000
   16        9.477582   0.000000
   17        9.656660   0.000000
   18       10.515590   0.000000
   19       10.757329   0.000000
   20       11.041094   0.000000
   21       11.374693   0.000000
   22       13.752699   0.000000
   23       14.012286   0.000000
   24       14.442958   0.000000
 
  0.4166667E+00  0.3068863E-15  0.3742002E-15  0.1543210E-02
    1       -3.310985   1.000000
    2       -2.072663   1.000000
    3        0.490827   1.000000
    4        0.640493   1.000000
    5        1.548899   1.000000
    6        1.578756   1.000000
    7        2.728862   1.000000
    8        2.754387   1.000000
    9        5.324390   1.000000
   10        5.442952   1.000000
   11        5.483229   1.000000
   12        5.607064   1.000000
   13        5.896766   1.000000
   14        7.589367   1.000000
   15        7.767969   1.000000
   16       10.007313   0.000000
   17       10.438008   0.000000
   18       10.491842   0.000000
   19       10.941004   0.000000
   20       11.414461   0.000000
   21       11.746518   0.000000
   22       13.354963   0.000000
   23       13.665646   0.000000
   24       13.801141   0.000000
 
  0.5000000E+00  0.2794457E-15  0.3742002E-15  0.7716049E-03
    1       -2.740935   1.000000
    2       -2.740933   1.000000
    3        0.517894   1.000000
    4        0.517895   1.000000
    5        2.093036   1.000000
    6        2.093037   1.000000
    7        2.121866   1.000000
    8        2.121868   1.000000
    9        5.342093   1.000000
   10        5.342096   1.000000
   11        5.499711   1.000000
   12        5.499711   1.000000
   13        6.860316   1.000000
   14        6.860317   1.000000
   15        8.760136   1.000000
   16        8.760136   1.000000
   17       11.238490   0.000000
   18       11.238493   0.000000
   19       11.438762   0.000000
   20       11.438763   0.000000
   21       12.078687   0.000000
   22       12.078687   0.000000
   23       13.961778   0.000000
   24       13.979907   0.000000
 
  0.3540091E-15  0.8333333E-01  0.3742002E-15  0.1543210E-02
    1       -4.566607   1.000000
    2        0.345311   1.000000
    3        0.345623   1.000000
    4        1.265905   1.000000
    5        1.372476   1.000000
    6        1.966622   1.000000
    7        2.717386   1.000000
    8        3.952155   1.000000
    9        4.535274   1.000000
   10        6.031893   1.000000
   11        6.066371   1.000000
   12        6.084964   1.000000
   13        6.327068   1.000000
   14        6.545536   1.000000
   15        6.620058   1.000000
   16        7.524567   1.000000
   17        7.639772   1.000000
   18        7.945276   1.000000
   19        8.276322   1.000000
   20       10.745974   0.000000
   21       11.209532   0.000000
   22       13.560181   0.000000
   23       14.027403   0.000000
   24       15.159776   0.000000
 
  0.8333333E-01  0.8333333E-01  0.3742002E-15  0.1543210E-02
    1       -4.454866   1.000000
    2        0.433197   1.000000
    3        0.455722   1.000000
    4        0.856948   1.000000
    5        1.109221   1.000000
    6        1.607111   1.000000
    7        2.584964   1.000000
    8        4.971317   1.000000
    9        5.269683   1.000000
   10        5.310240   1.000000
   11        5.629618   1.000000
   12        5.750998   1.000000
   13        6.107653   1.000000
   14        6.374134   1.000000
   15        6.719349   1.000000
   16        7.330667   1.000000
   17        7.568263   1.000000
   18        8.917106   1.000000
   19        9.264411   0.000032
   20       11.371936   0.000000
   21       11.847092   0.000000
   22       13.466051   0.000000
   23       14.124167   0.000000
   24       14.132458   0.000000
 
  0.1666667E+00  0.8333333E-01  0.3742002E-15  0.1543210E-02
    1       -4.238314   1.000000
    2       -0.045375   1.000000
    3        0.554144   1.000000
    4        0.666805   1.000000
    5        0.716769   1.000000
    6        1.584833   1.000000
    7        2.990983   1.000000
    8        4.519872   1.000000
    9        4.792575   1.000000
   10        5.360397   1.000000
   11        5.644175   1.000000
   12        5.883276   1.000000
   13        6.227169   1.000000
   14        6.583675   1.000000
   15        6.618364   1.000000
   16        7.813164   1.000000
   17        7.965984   1.000000
   18        9.930789   0.000000
   19       10.288749   0.000000
   20       12.321438   0.000000
   21       12.448091   0.000000
   22       12.693937   0.000000
   23       12.810114   0.000000
   24       14.004102   0.000000
 
  0.2500000E+00  0.8333333E-01  0.3742002E-15  0.1543210E-02
    1       -3.917620   1.000000
    2       -0.913371   1.000000
    3        0.203621   1.000000
    4        0.977854   1.000000
    5        1.000015   1.000000
    6        1.444605   1.000000
    7        3.504674   1.000000
    8        3.740309   1.000000
    9        4.185925   1.000000
   10        5.043521   1.000000
   11        5.270398   1.000000
   12        6.199902   1.000000
   13        6.430929   1.000000
   14        6.837141   1.000000
   15        7.727367   1.000000
   16        8.556295   1.000000
   17        8.661656   1.000000
   18       10.928392   0.000000
   19       11.221155   0.000000
   20       11.333790   0.000000
   21       11.340125   0.000000
   22       13.504338   0.000000
   23       13.981950   0.000000
   24       14.152435   0.000000
 
  0.3333333E+00  0.8333333E-01  0.3742002E-15  0.1543210E-02
    1       -3.493852   1.000000
    2       -1.713599   1.000000
    3       -0.063366   1.000000
    4        1.352848   1.000000
    5        1.387679   1.000000
    6        1.405793   1.000000
    7        3.011476   1.000000
    8        3.053495   1.000000
    9        4.726538   1.000000
   10        4.831242   1.000000
   11        4.994542   1.000000
   12        6.124605   1.000000
   13        6.312680   1.000000
   14        7.860583   1.000000
   15        8.444121   1.000000
   16        9.382915   0.000000
   17        9.589675   0.000000
   18        9.888267   0.000000
   19       10.782557   0.000000
   20       11.813688   0.000000
   21       12.181853   0.000000
   22       13.777153   0.000000
   23       14.363577   0.000000
   24       14.509169   0.000000
 
  0.4166667E+00  0.8333333E-01  0.3742002E-15  0.1543210E-02
    1       -2.968639   1.000000
    2       -2.423990   1.000000
    3       -0.233179   1.000000
    4        1.343033   1.000000
    5        1.894454   1.000000
    6        1.910666   1.000000
    7        2.354498   1.000000
    8        2.408509   1.000000
    9        4.645144   1.000000
   10        4.818502   1.000000
   11        5.696944   1.000000
   12        6.110545   1.000000
   13        6.279044   1.000000
   14        7.998134   1.000000
   15        8.587144   1.000000
   16        8.973606   0.999988
   17       10.213644   0.000000
   18       10.502713   0.000000
   19       11.568180   0.000000
   20       12.159673   0.000000
   21       12.309368   0.000000
   22       12.731953   0.000000
   23       13.738043   0.000000
   24       13.810953   0.000000
 
  0.5000000E+00  0.8333333E-01  0.3742002E-15  0.1543210E-02
    1       -3.037747   1.000000
    2       -2.344507   1.000000
    3       -0.303754   1.000000
    4        1.416821   1.000000
    5        1.781068   1.000000
    6        1.839399   1.000000
    7        2.495476   1.000000
    8        2.508709   1.000000
    9        4.584526   1.000000
   10        4.742760   1.000000
   11        6.170483   1.000000
   12        6.328999   1.000000
   13        6.699051   1.000000
   14        7.105234   1.000000
   15        7.366281   1.000000
   16       10.139814   0.000000
   17       10.786725   0.000000
   18       11.085835   0.000000
   19       11.149248   0.000000
   20       11.634391   0.000000
   21       11.897634   0.000000
   22       12.900882   0.000000
   23       13.013443   0.000000
   24       13.087927   0.000000
 
 -0.4166667E+00  0.8333333E-01  0.3742002E-15  0.1543210E-02
    1       -3.551437   1.000000
    2       -1.625721   1.000000
    3       -0.274329   1.000000
    4        1.298071   1.000000
    5        1.310994   1.000000
    6        1.631592   1.000000
    7        3.186713   1.000000
    8        3.190473   1.000000
    9        4.616632   1.000000
   10        4.767285   1.000000
   11        6.174544   1.000000
   12        6.234862   1.000000
   13        6.312414   1.000000
   14        6.453675   1.000000
   15        7.570578   1.000000
   16        9.827239   0.000000
   17       10.517412   0.000000
   18       10.783094   0.000000
   19       10.830116   0.000000
   20       11.083755   0.000000
   21       11.470973   0.000000
   22       13.217451   0.000000
   23       13.237847   0.000000
   24       14.286376   0.000000
 
 -0.3333333E+00  0.8333333E-01  0.3742002E-15  0.1543210E-02
    1       -3.962972   1.000000
    2       -0.820804   1.000000
    3       -0.145146   1.000000
    4        0.909778   1.000000
    5        0.933370   1.000000
    6        1.879388   1.000000
    7        3.922742   1.000000
    8        3.961711   1.000000
    9        4.740522   1.000000
   10        4.891617   1.000000
   11        5.203998   1.000000
   12        5.349553   1.000000
   13        6.491865   1.000000
   14        6.632201   1.000000
   15        7.415370   1.000000
   16        9.436355   0.000000
   17        9.724042   0.000000
   18       10.000958   0.000000
   19       10.016976   0.000000
   20       10.573342   0.000000
   21       12.700992   0.000000
   22       13.066753   0.000000
   23       13.343601   0.000000
   24       14.420661   0.000000
 
 -0.2500000E+00  0.8333333E-01  0.3742002E-15  0.1543210E-02
    1       -4.270985   1.000000
    2        0.045545   1.000000
    3        0.082316   1.000000
    4        0.618918   1.000000
    5        0.648551   1.000000
    6        2.210847   1.000000
    7        4.277604   1.000000
    8        4.289962   1.000000
    9        4.808716   1.000000
   10        4.951948   1.000000
   11        5.038911   1.000000
   12        5.114699   1.000000
   13        6.292558   1.000000
   14        6.701604   1.000000
   15        6.817946   1.000000
   16        8.869215   1.000000
   17        9.121546   0.517882
   18        9.149623   0.226844
   19        9.259580   0.000057
   20       11.169057   0.000000
   21       11.907175   0.000000
   22       12.313233   0.000000
   23       14.018101   0.000000
   24       14.281089   0.000000
 
 -0.1666667E+00  0.8333333E-01  0.3742002E-15  0.1543210E-02
    1       -4.474574   1.000000
    2        0.404256   1.000000
    3        0.426048   1.000000
    4        0.427254   1.000000
    5        0.951540   1.000000
    6        2.554944   1.000000
    7        3.561253   1.000000
    8        3.717924   1.000000
    9        5.007195   1.000000
   10        5.382921   1.000000
   11        5.434315   1.000000
   12        5.696889   1.000000
   13        5.729589   1.000000
   14        6.895054   1.000000
   15        6.913697   1.000000
   16        8.078321   1.000000
   17        8.350137   1.000000
   18        8.544117   1.000000
   19        8.580944   1.000000
   20       11.004750   0.000000
   21       11.443678   0.000000
   22       12.275581   0.000000
   23       14.104068   0.000000
   24       14.960868   0.000000
 
 -0.8333333E-01  0.8333333E-01  0.3742002E-15  0.1543210E-02
    1       -4.573197   1.000000
    2        0.335868   1.000000
    3        0.340129   1.000000
    4        0.810557   1.000000
    5        1.528535   1.000000
    6        2.620158   1.000000
    7        3.151773   1.000000
    8        3.305488   1.000000
    9        4.353231   1.000000
   10        5.681518   1.000000
   11        5.845087   1.000000
   12        6.199683   1.000000
   13        6.387762   1.000000
   14        6.870370   1.000000
   15        7.121373   1.000000
   16        7.491956   1.000000
   17        7.713881   1.000000
   18        7.994904   1.000000
   19        8.019666   1.000000
   20       10.584817   0.000000
   21       11.040857   0.000000
   22       13.187979   0.000000
   23       14.019207   0.000000
   24       15.256726   0.000000
 
  0.3888291E-15  0.1666667E+00  0.3742002E-15  0.1543210E-02
    1       -4.408856   1.000000
    2        0.385860   1.000000
    3        0.496863   1.000000
    4        0.574369   1.000000
    5        0.970060   1.000000
    6        1.566622   1.000000
    7        3.287015   1.000000
    8        4.653613   1.000000
    9        5.118640   1.000000
   10        5.268224   1.000000
   11        5.542468   1.000000
   12        5.953534   1.000000
   13        5.993319   1.000000
   14        6.183926   1.000000
   15        6.356266   1.000000
   16        8.137775   1.000000
   17        8.167343   1.000000
   18        8.894368   1.000000
   19        9.219673   0.003161
   20       11.519418   0.000000
   21       11.971872   0.000000
   22       12.374825   0.000000
   23       14.108343   0.000000
   24       14.168340   0.000000
 
  0.8333333E-01  0.1666667E+00  0.3742002E-15  0.1543210E-02
    1       -4.238314   1.000000
    2       -0.045375   1.000000
    3        0.554144   1.000000
    4        0.666805   1.000000
    5        0.716768   1.000000
    6        1.584833   1.000000
    7        2.990983   1.000000
    8        4.519872   1.000000
    9        4.792575   1.000000
   10        5.360397   1.000000
   11        5.644175   1.000000
   12        5.883276   1.000000
   13        6.227168   1.000000
   14        6.583676   1.000000
   15        6.618364   1.000000
   16        7.813164   1.000000
   17        7.965984   1.000000
   18        9.930789   0.000000
   19       10.288749   0.000000
   20       12.321438   0.000000
   21       12.448091   0.000000
   22       12.693937   0.000000
   23       12.810114   0.000000
   24       14.004125   0.000000
 
  0.1666667E+00  0.1666667E+00  0.3742002E-15  0.1543210E-02
    1       -3.963520   1.000000
    2       -0.547619   1.000000
    3       -0.247012   1.000000
    4        0.936698   1.000000
    5        0.955000   1.000000
    6        2.086665   1.000000
    7        2.969899   1.000000
    8        3.900729   1.000000
    9        4.283378   1.000000
   10        4.681848   1.000000
   11        5.029744   1.000000
   12        6.710103   1.000000
   13        7.142625   1.000000
   14        7.219984   1.000000
   15        7.262252   1.000000
   16        7.767652   1.000000
   17        8.170085   1.000000
   18       10.993966   0.000000
   19       11.234313   0.000000
   20       11.385356   0.000000
   21       12.378285   0.000000
   22       12.977373   0.000000
   23       13.362224   0.000000
   24       13.882382   0.000000
 
  0.2500000E+00  0.1666667E+00  0.3742002E-15  0.1543210E-02
    1       -3.585453   1.000000
    2       -1.284575   1.000000
    3       -0.666141   1.000000
    4        1.305659   1.000000
    5        1.319024   1.000000
    6        2.210072   1.000000
    7        3.206387   1.000000
    8        3.261023   1.000000
    9        3.942210   1.000000
   10        4.290095   1.000000
   11        4.579032   1.000000
   12        6.879159   1.000000
   13        7.179825   1.000000
   14        8.028847   1.000000
   15        8.350344   1.000000
   16        8.373147   1.000000
   17        8.997442   0.999811
   18        9.823761   0.000000
   19       11.569621   0.000000
   20       12.012971   0.000000
   21       12.429050   0.000000
   22       12.981232   0.000000
   23       14.035667   0.000000
   24       14.625865   0.000000
 
  0.3333333E+00  0.1666667E+00  0.3742002E-15  0.1543210E-02
    1       -3.105642   1.000000
    2       -2.023333   1.000000
    3       -0.896243   1.000000
    4        1.772199   1.000000
    5        1.782327   1.000000
    6        2.207962   1.000000
    7        2.635073   1.000000
    8        2.739785   1.000000
    9        4.058184   1.000000
   10        4.284605   1.000000
   11        4.622470   1.000000
   12        6.899776   1.000000
   13        7.124866   1.000000
   14        8.478298   1.000000
   15        8.659622   1.000000
   16        9.198321   0.016724
   17        9.215081   0.004651
   18        9.890977   0.000000
   19       11.385102   0.000000
   20       12.801305   0.000000
   21       12.939807   0.000000
   22       13.258145   0.000000
   23       13.309159   0.000000
   24       13.610714   0.000000
 
  0.4166667E+00  0.1666667E+00  0.3742002E-15  0.1543210E-02
    1       -2.676682   1.000000
    2       -2.526479   1.000000
    3       -1.015634   1.000000
    4        2.059804   1.000000
    5        2.099305   1.000000
    6        2.317540   1.000000
    7        2.333979   1.000000
    8        2.340440   1.000000
    9        3.945549   1.000000
   10        4.122994   1.000000
   11        5.593644   1.000000
   12        6.936512   1.000000
   13        7.123882   1.000000
   14        7.211785   1.000000
   15        8.279546   1.000000
   16        9.970817   0.000000
   17       10.059188   0.000000
   18       10.674618   0.000000
   19       11.690315   0.000000
   20       12.496876   0.000000
   21       12.634595   0.000000
   22       12.666978   0.000000
   23       12.749095   0.000000
   24       13.041461   0.000000
 
  0.5000000E+00  0.1666667E+00  0.3742002E-15  0.1543210E-02
    1       -3.233136   1.000000
    2       -1.852050   1.000000
    3       -1.031186   1.000000
    4        1.557775   1.000000
    5        1.612685   1.000000
    6        2.418910   1.000000
    7        2.987110   1.000000
    8        2.987362   1.000000
    9        3.935024   1.000000
   10        4.079083   1.000000
   11        6.034325   1.000000
   12        6.617868   1.000000
   13        7.016027   1.000000
   14        7.178702   1.000000
   15        7.432288   1.000000
   16       10.199220   0.000000
   17       10.313502   0.000000
   18       10.491596   0.000000
   19       11.503510   0.000000
   20       12.045723   0.000000
   21       12.235610   0.000000
   22       12.354713   0.000000
   23       12.422136   0.000000
   24       13.883084   0.000000
 
 -0.4166667E+00  0.1666667E+00  0.3742002E-15  0.1543210E-02
    1       -3.688838   1.000000
    2       -1.090431   1.000000
    3       -0.944164   1.000000
    4        1.141153   1.000000
    5        1.186984   1.000000
    6        2.629356   1.000000
    7        3.708877   1.000000
    8        3.726141   1.000000
    9        4.025237   1.000000
   10        4.145015   1.000000
   11        4.957458   1.000000
   12        6.566788   1.000000
   13        7.119147   1.000000
   14        7.255424   1.000000
   15        7.375722   1.000000
   16        9.243526   0.000331
   17        9.641272   0.000000
   18        9.909206   0.000000
   19       11.239892   0.000000
   20       11.438658   0.000000
   21       12.459730   0.000000
   22       12.933280   0.000000
   23       13.187770   0.000000
   24       13.914528   0.000000
 
 -0.3333333E+00  0.1666667E+00  0.3742002E-15  0.1543210E-02
    1       -4.041803   1.000000
    2       -0.755326   1.000000
    3       -0.262212   1.000000
    4        0.816642   1.000000
    5        0.856204   1.000000
    6        2.909888   1.000000
    7        3.995790   1.000000
    8        4.221560   1.000000
    9        4.316467   1.000000
   10        4.457118   1.000000
   11        4.537798   1.000000
   12        5.797442   1.000000
   13        6.842625   1.000000
   14        7.180139   1.000000
   15        7.262351   1.000000
   16        8.959477   0.999998
   17        9.190388   0.028567
   18        9.416159   0.000000
   19       10.463272   0.000000
   20       10.865861   0.000000
   21       12.413756   0.000000
   22       12.765855   0.000000
   23       13.676760   0.000000
   24       13.873579   0.000000
 
 -0.2500000E+00  0.1666667E+00  0.3742002E-15  0.1543210E-02
    1       -4.290841   1.000000
    2       -0.465846   1.000000
    3        0.508977   1.000000
    4        0.588120   1.000000
    5        0.684025   1.000000
    6        3.194787   1.000000
    7        3.236270   1.000000
    8        4.509043   1.000000
    9        4.590498   1.000000
   10        4.759898   1.000000
   11        5.385100   1.000000
   12        5.560276   1.000000
   13        5.732468   1.000000
   14        7.046224   1.000000
   15        7.096460   1.000000
   16        8.470844   1.000000
   17        8.644186   1.000000
   18        9.483145   0.000000
   19        9.752170   0.000000
   20       11.174946   0.000000
   21       11.463105   0.000000
   22       11.872755   0.000000
   23       13.699978   0.000000
   24       14.246329   0.000000
 
 -0.1666667E+00  0.1666667E+00  0.3742002E-15  0.1543210E-02
    1       -4.435219   1.000000
    2       -0.077866   1.000000
    3        0.457887   1.000000
    4        0.465059   1.000000
    5        1.134944   1.000000
    6        2.937229   1.000000
    7        3.237166   1.000000
    8        4.243589   1.000000
    9        4.893965   1.000000
   10        4.943974   1.000000
   11        4.964340   1.000000
   12        5.947656   1.000000
   13        6.011196   1.000000
   14        6.783038   1.000000
   15        7.008098   1.000000
   16        8.115838   1.000000
   17        8.251421   1.000000
   18        9.017256   0.998626
   19        9.121815   0.514856
   20       10.935860   0.000000
   21       11.371621   0.000000
   22       11.936256   0.000000
   23       13.974647   0.000000
   24       14.131876   0.000000
 
 -0.8333333E-01  0.1666667E+00  0.3742002E-15  0.1543210E-02
    1       -4.474574   1.000000
    2        0.404256   1.000000
    3        0.426048   1.000000
    4        0.427254   1.000000
    5        0.951540   1.000000
    6        2.554944   1.000000
    7        3.561253   1.000000
    8        3.717924   1.000000
    9        5.007195   1.000000
   10        5.382921   1.000000
   11        5.434315   1.000000
   12        5.696889   1.000000
   13        5.729589   1.000000
   14        6.895054   1.000000
   15        6.913697   1.000000
   16        8.078321   1.000000
   17        8.350137   1.000000
   18        8.544117   1.000000
   19        8.580944   1.000000
   20       11.004750   0.000000
   21       11.443678   0.000000
   22       12.275581   0.000000
   23       14.104068   0.000000
   24       14.953091   0.000000
 
  0.3473213E-15  0.2500000E+00  0.3742002E-15  0.1543210E-02
    1       -4.146421   1.000000
    2       -0.465562   1.000000
    3        0.722993   1.000000
    4        0.748777   1.000000
    5        0.757355   1.000000
    6        1.191146   1.000000
    7        3.856030   1.000000
    8        4.251806   1.000000
    9        4.565205   1.000000
   10        5.521785   1.000000
   11        5.537703   1.000000
   12        5.731734   1.000000
   13        5.886406   1.000000
   14        6.059114   1.000000
   15        6.987259   1.000000
   16        8.815012   1.000000
   17        8.858992   1.000000
   18        9.843603   0.000000
   19       10.159273   0.000000
   20       11.210475   0.000000
   21       12.610532   0.000000
   22       12.714547   0.000000
   23       13.040128   0.000000
   24       14.407554   0.000000
 
  0.8333333E-01  0.2500000E+00  0.3742002E-15  0.1543210E-02
    1       -3.917620   1.000000
    2       -0.913371   1.000000
    3        0.203621   1.000000
    4        0.977854   1.000000
    5        1.000014   1.000000
    6        1.444605   1.000000
    7        3.504674   1.000000
    8        3.740309   1.000000
    9        4.185925   1.000000
   10        5.043521   1.000000
   11        5.270398   1.000000
   12        6.199902   1.000000
   13        6.430929   1.000000
   14        6.837141   1.000000
   15        7.727367   1.000000
   16        8.556295   1.000000
   17        8.661656   1.000000
   18       10.928392   0.000000
   19       11.221155   0.000000
   20       11.333790   0.000000
   21       11.340125   0.000000
   22       13.504338   0.000000
   23       13.981948   0.000000
   24       14.152439   0.000000
 
  0.1666667E+00  0.2500000E+00  0.3742002E-15  0.1543210E-02
    1       -3.585453   1.000000
    2       -1.284575   1.000000
    3       -0.666141   1.000000
    4        1.305659   1.000000
    5        1.319024   1.000000
    6        2.210072   1.000000
    7        3.206386   1.000000
    8        3.261023   1.000000
    9        3.942210   1.000000
   10        4.290095   1.000000
   11        4.579032   1.000000
   12        6.879159   1.000000
   13        7.179825   1.000000
   14        8.028847   1.000000
   15        8.350344   1.000000
   16        8.373147   1.000000
   17        8.997442   0.999811
   18        9.823761   0.000000
   19       11.569621   0.000000
   20       12.012971   0.000000
   21       12.429050   0.000000
   22       12.981232   0.000000
   23       14.035663   0.000000
   24       14.626140   0.000000
 
  0.2500000E+00  0.2500000E+00  0.3742002E-15  0.1543210E-02
    1       -3.151361   1.000000
    2       -1.652408   1.000000
    3       -1.354898   1.000000
    4        1.731034   1.000000
    5        1.739336   1.000000
    6        2.785138   1.000000
    7        2.845403   1.000000
    8        2.890900   1.000000
    9        3.752091   1.000000
   10        3.982958   1.000000
   11        4.049897   1.000000
   12        7.402802   1.000000
   13        7.786774   1.000000
   14        8.433257   1.000000
   15        8.441369   1.000000
   16        8.476909   1.000000
   17        9.413134   0.000000
   18        9.854626   0.000000
   19       11.792123   0.000000
   20       12.262239   0.000000