 vasp.5.4.1 24Jun15 (build Nov 23 2015 09:58:10) complex                        
  
 executed on             LinuxIFC date 2020.11.17  18:31:24
 running on   48 total cores
 distrk:  each k-point on   48 cores,    1 groups
 distr:  one band on NCORES_PER_BAND=   6 cores,    8 groups


--------------------------------------------------------------------------------------------------------


 INCAR:
 POTCAR:    PAW_PBE Si 05Jan2001                  
 POTCAR:    PAW_PBE Si 05Jan2001                  
   VRHFIN =Si: s2p2                                                             
   LEXCH  = PE                                                                  
   EATOM  =   103.0669 eV,    7.5752 Ry                                         
                                                                                
   TITEL  = PAW_PBE Si 05Jan2001                                                
   LULTRA =        F    use ultrasoft PP ?                                      
   IUNSCR =        1    unscreen: 0-lin 1-nonlin 2-no                           
   RPACOR =    1.500    partial core radius                                     
   POMASS =   28.085; ZVAL   =    4.000    mass and valenz                      
   RCORE  =    1.900    outmost cutoff radius                                   
   RWIGS  =    2.480; RWIGS  =    1.312    wigner-seitz radius (au A)           
   ENMAX  =  245.345; ENMIN  =  184.009 eV                                      
   ICORE  =        2    local potential                                         
   LCOR   =        T    correct aug charges                                     
   LPAW   =        T    paw PP                                                  
   EAUG   =  322.069                                                            
   DEXC   =    0.000                                                            
   RMAX   =    1.950    core radius for proj-oper                               
   RAUG   =    1.300    factor for augmentation sphere                          
   RDEP   =    1.993    radius for radial grids                                 
   RDEPT  =    1.837    core radius for aug-charge                              
                                                                                
   Atomic configuration                                                         
    6 entries                                                                   
     n  l   j            E        occ.                                          
     1  0  0.50     -1785.8828   2.0000                                         
     2  0  0.50      -139.4969   2.0000                                         
     2  1  1.50       -95.5546   6.0000                                         
     3  0  0.50       -10.8127   2.0000                                         
     3  1  0.50        -4.0811   2.0000                                         
     3  2  1.50        -4.0817   0.0000                                         
   Description                                                                  
     l       E           TYP  RCUT    TYP  RCUT                                 
     0    -10.8127223     23  1.900                                             
     0     -7.6451159     23  1.900                                             
     1     -4.0811372     23  1.900                                             
     1      2.4879257     23  1.900                                             
     2     -4.0817478      7  1.900                                             
  local pseudopotential read in
  partial core-charges read in
  partial kinetic energy density read in
  atomic valenz-charges read in
  non local Contribution for L=           0  read in
    real space projection operators read in
  non local Contribution for L=           0  read in
    real space projection operators read in
  non local Contribution for L=           1  read in
    real space projection operators read in
  non local Contribution for L=           1  read in
    real space projection operators read in
    PAW grid and wavefunctions read in
 
   number of l-projection  operators is LMAX  =           4
   number of lm-projection operators is LMMAX =           8
 

 ----------------------------------------------------------------------------- 
|                                                                             |
|  ADVICE TO THIS USER RUNNING 'VASP/VAMP'   (HEAR YOUR MASTER'S VOICE ...):  |
|                                                                             |
|      You have a (more or less) 'small supercell' and for smaller cells      |
|      it is recommended  to use the reciprocal-space projection scheme!      |
|      The real space optimization is not  efficient for small cells and it   |
|      is also less accurate ...                                              |
|      Therefore set LREAL=.FALSE. in the  INCAR file                         |
|                                                                             |
 ----------------------------------------------------------------------------- 

 Optimization of the real space projectors (new method)

 maximal supplied QI-value         = 19.84
 optimisation between [QCUT,QGAM] = [ 11.51, 23.22] = [ 37.09,150.92] Ry 
 Optimized for a Real-space Cutoff    1.21 Angstroem

   l    n(q)    QCUT    max X(q) W(low)/X(q) W(high)/X(q)  e(spline) 
   0      8    11.508   159.560    0.71E-04    0.15E-03    0.51E-07
   0      8    11.508   115.863    0.70E-04    0.15E-03    0.51E-07
   1      8    11.508    88.339    0.16E-03    0.38E-04    0.82E-07
   1      8    11.508    48.592    0.15E-03    0.36E-04    0.79E-07
  PAW_PBE Si 05Jan2001                  :
 energy of atom  1       EATOM= -103.0669
 kinetic energy error for atom=    0.0005 (will be added to EATOM!!)
 
 
 POSCAR: Si8                                     
  positions in direct lattice
  velocities in cartesian coordinates
 exchange correlation table for  LEXCH =        8
   RHO(1)=    0.500       N(1)  =     2000
   RHO(2)=  100.500       N(2)  =     4000
 


--------------------------------------------------------------------------------------------------------


 ion  position               nearest neighbor table
   1  0.500  0.500  0.772-   2 2.45   4 2.47   4 2.47   5 2.54   7 2.54   8 2.85   6 2.85   2 2.91

   2  0.500  0.500  0.228-   1 2.45   3 2.47   3 2.47   5 2.54   7 2.54   6 2.85   8 2.85   1 2.91

   3  1.000  1.000  0.272-   4 2.45   2 2.47   2 2.47   6 2.54   8 2.54   7 2.85   5 2.85   4 2.91

   4  0.000  0.000  0.728-   3 2.45   1 2.47   1 2.47   6 2.54   8 2.54   5 2.85   7 2.85   3 2.91

   5  0.724  0.276  0.500-   7 2.50   7 2.50   2 2.54   1 2.54   8 2.73   8 2.73   4 2.85   3 2.85

   6  0.224  0.776  0.000-   8 2.50   8 2.50   3 2.54   4 2.54   7 2.73   7 2.73   2 2.85   1 2.85

   7  0.276  0.724  0.500-   5 2.50   5 2.50   2 2.54   1 2.54   6 2.73   6 2.73   3 2.85   4 2.85

   8  0.776  0.224  0.000-   6 2.50   6 2.50   3 2.54   4 2.54   5 2.73   5 2.73   1 2.85   2 2.85

 

IMPORTANT INFORMATION: All symmetrisations will be switched off!
NOSYMM: (Re-)initialisation of all symmetry stuff for point group C_1.

 
 
 KPOINTS: K-Mesh                                  

Automatic generation of k-mesh.
Space group operators:
 irot       det(A)        alpha          n_x          n_y          n_z        tau_x        tau_y        tau_z
    1     1.000000     0.000001     1.000000     0.000000     0.000000     0.000000     0.000000     0.000000
 
 Subroutine IBZKPT returns following result:
 ===========================================
 
 Found    650 irreducible k-points:
 
 Following reciprocal coordinates:
            Coordinates               Weight
  0.000000  0.000000  0.000000      1.000000
  0.083333  0.000000  0.000000      2.000000
  0.166667  0.000000  0.000000      2.000000
  0.250000  0.000000  0.000000      2.000000
  0.333333  0.000000  0.000000      2.000000
  0.416667  0.000000  0.000000      2.000000
  0.500000  0.000000  0.000000      1.000000
  0.000000  0.083333  0.000000      2.000000
  0.083333  0.083333  0.000000      2.000000
  0.166667  0.083333  0.000000      2.000000
  0.250000  0.083333  0.000000      2.000000
  0.333333  0.083333  0.000000      2.000000
  0.416667  0.083333  0.000000      2.000000
  0.500000  0.083333  0.000000      2.000000
 -0.416667  0.083333  0.000000      2.000000
 -0.333333  0.083333  0.000000      2.000000
 -0.250000  0.083333  0.000000      2.000000
 -0.166667  0.083333  0.000000      2.000000
 -0.083333  0.083333  0.000000      2.000000
  0.000000  0.166667  0.000000      2.000000
  0.083333  0.166667  0.000000      2.000000
  0.166667  0.166667  0.000000      2.000000
  0.250000  0.166667  0.000000      2.000000
  0.333333  0.166667  0.000000      2.000000
  0.416667  0.166667  0.000000      2.000000
  0.500000  0.166667  0.000000      2.000000
 -0.416667  0.166667  0.000000      2.000000
 -0.333333  0.166667  0.000000      2.000000
 -0.250000  0.166667  0.000000      2.000000
 -0.166667  0.166667  0.000000      2.000000
 -0.083333  0.166667  0.000000      2.000000
  0.000000  0.250000  0.000000      2.000000
  0.083333  0.250000  0.000000      2.000000
  0.166667  0.250000  0.000000      2.000000
  0.250000  0.250000  0.000000      2.000000
  0.333333  0.250000  0.000000      2.000000
  0.416667  0.250000  0.000000      2.000000
  0.500000  0.250000  0.000000      2.000000
 -0.416667  0.250000  0.000000      2.000000
 -0.333333  0.250000  0.000000      2.000000
 -0.250000  0.250000  0.000000      2.000000
 -0.166667  0.250000  0.000000      2.000000
 -0.083333  0.250000  0.000000      2.000000
  0.000000  0.333333  0.000000      2.000000
  0.083333  0.333333  0.000000      2.000000
  0.166667  0.333333  0.000000      2.000000
  0.250000  0.333333  0.000000      2.000000
  0.333333  0.333333  0.000000      2.000000
  0.416667  0.333333  0.000000      2.000000
  0.500000  0.333333  0.000000      2.000000
 -0.416667  0.333333  0.000000      2.000000
 -0.333333  0.333333  0.000000      2.000000
 -0.250000  0.333333  0.000000      2.000000
 -0.166667  0.333333  0.000000      2.000000
 -0.083333  0.333333  0.000000      2.000000
  0.000000  0.416667  0.000000      2.000000
  0.083333  0.416667  0.000000      2.000000
  0.166667  0.416667  0.000000      2.000000
  0.250000  0.416667  0.000000      2.000000
  0.333333  0.416667  0.000000      2.000000
  0.416667  0.416667  0.000000      2.000000
  0.500000  0.416667  0.000000      2.000000
 -0.416667  0.416667  0.000000      2.000000
 -0.333333  0.416667  0.000000      2.000000
 -0.250000  0.416667  0.000000      2.000000
 -0.166667  0.416667  0.000000      2.000000
 -0.083333  0.416667  0.000000      2.000000
  0.000000  0.500000  0.000000      1.000000
  0.083333  0.500000  0.000000      2.000000
  0.166667  0.500000  0.000000      2.000000
  0.250000  0.500000  0.000000      2.000000
  0.333333  0.500000  0.000000      2.000000
  0.416667  0.500000  0.000000      2.000000
  0.500000  0.500000  0.000000      1.000000
  0.000000  0.000000  0.111111      2.000000
  0.083333  0.000000  0.111111      2.000000
  0.166667  0.000000  0.111111      2.000000
  0.250000  0.000000  0.111111      2.000000
  0.333333  0.000000  0.111111      2.000000
  0.416667  0.000000  0.111111      2.000000
  0.500000  0.000000  0.111111      2.000000
 -0.416667  0.000000  0.111111      2.000000
 -0.333333  0.000000  0.111111      2.000000
 -0.250000  0.000000  0.111111      2.000000
 -0.166667  0.000000  0.111111      2.000000
 -0.083333  0.000000  0.111111      2.000000
  0.000000  0.083333  0.111111      2.000000
  0.083333  0.083333  0.111111      2.000000
  0.166667  0.083333  0.111111      2.000000
  0.250000  0.083333  0.111111      2.000000
  0.333333  0.083333  0.111111      2.000000
  0.416667  0.083333  0.111111      2.000000
  0.500000  0.083333  0.111111      2.000000
 -0.416667  0.083333  0.111111      2.000000
 -0.333333  0.083333  0.111111      2.000000
 -0.250000  0.083333  0.111111      2.000000
 -0.166667  0.083333  0.111111      2.000000
 -0.083333  0.083333  0.111111      2.000000
  0.000000  0.166667  0.111111      2.000000
  0.083333  0.166667  0.111111      2.000000
  0.166667  0.166667  0.111111      2.000000
  0.250000  0.166667  0.111111      2.000000
  0.333333  0.166667  0.111111      2.000000
  0.416667  0.166667  0.111111      2.000000
  0.500000  0.166667  0.111111      2.000000
 -0.416667  0.166667  0.111111      2.000000
 -0.333333  0.166667  0.111111      2.000000
 -0.250000  0.166667  0.111111      2.000000
 -0.166667  0.166667  0.111111      2.000000
 -0.083333  0.166667  0.111111      2.000000
  0.000000  0.250000  0.111111      2.000000
  0.083333  0.250000  0.111111      2.000000
  0.166667  0.250000  0.111111      2.000000
  0.250000  0.250000  0.111111      2.000000
  0.333333  0.250000  0.111111      2.000000
  0.416667  0.250000  0.111111      2.000000
  0.500000  0.250000  0.111111      2.000000
 -0.416667  0.250000  0.111111      2.000000
 -0.333333  0.250000  0.111111      2.000000
 -0.250000  0.250000  0.111111      2.000000
 -0.166667  0.250000  0.111111      2.000000
 -0.083333  0.250000  0.111111      2.000000
  0.000000  0.333333  0.111111      2.000000
  0.083333  0.333333  0.111111      2.000000
  0.166667  0.333333  0.111111      2.000000
  0.250000  0.333333  0.111111      2.000000
  0.333333  0.333333  0.111111      2.000000
  0.416667  0.333333  0.111111      2.000000
  0.500000  0.333333  0.111111      2.000000
 -0.416667  0.333333  0.111111      2.000000
 -0.333333  0.333333  0.111111      2.000000
 -0.250000  0.333333  0.111111      2.000000
 -0.166667  0.333333  0.111111      2.000000
 -0.083333  0.333333  0.111111      2.000000
  0.000000  0.416667  0.111111      2.000000
  0.083333  0.416667  0.111111      2.000000
  0.166667  0.416667  0.111111      2.000000
  0.250000  0.416667  0.111111      2.000000
  0.333333  0.416667  0.111111      2.000000
  0.416667  0.416667  0.111111      2.000000
  0.500000  0.416667  0.111111      2.000000
 -0.416667  0.416667  0.111111      2.000000
 -0.333333  0.416667  0.111111      2.000000
 -0.250000  0.416667  0.111111      2.000000
 -0.166667  0.416667  0.111111      2.000000
 -0.083333  0.416667  0.111111      2.000000
  0.000000  0.500000  0.111111      2.000000
  0.083333  0.500000  0.111111      2.000000
  0.166667  0.500000  0.111111      2.000000
  0.250000  0.500000  0.111111      2.000000
  0.333333  0.500000  0.111111      2.000000
  0.416667  0.500000  0.111111      2.000000
  0.500000  0.500000  0.111111      2.000000
 -0.416667  0.500000  0.111111      2.000000
 -0.333333  0.500000  0.111111      2.000000
 -0.250000  0.500000  0.111111      2.000000
 -0.166667  0.500000  0.111111      2.000000
 -0.083333  0.500000  0.111111      2.000000
  0.000000 -0.416667  0.111111      2.000000
  0.083333 -0.416667  0.111111      2.000000
  0.166667 -0.416667  0.111111      2.000000
  0.250000 -0.416667  0.111111      2.000000
  0.333333 -0.416667  0.111111      2.000000
  0.416667 -0.416667  0.111111      2.000000
  0.500000 -0.416667  0.111111      2.000000
 -0.416667 -0.416667  0.111111      2.000000
 -0.333333 -0.416667  0.111111      2.000000
 -0.250000 -0.416667  0.111111      2.000000
 -0.166667 -0.416667  0.111111      2.000000
 -0.083333 -0.416667  0.111111      2.000000
  0.000000 -0.333333  0.111111      2.000000
  0.083333 -0.333333  0.111111      2.000000
  0.166667 -0.333333  0.111111      2.000000
  0.250000 -0.333333  0.111111      2.000000
  0.333333 -0.333333  0.111111      2.000000
  0.416667 -0.333333  0.111111      2.000000
  0.500000 -0.333333  0.111111      2.000000
 -0.416667 -0.333333  0.111111      2.000000
 -0.333333 -0.333333  0.111111      2.000000
 -0.250000 -0.333333  0.111111      2.000000
 -0.166667 -0.333333  0.111111      2.000000
 -0.083333 -0.333333  0.111111      2.000000
  0.000000 -0.250000  0.111111      2.000000
  0.083333 -0.250000  0.111111      2.000000
  0.166667 -0.250000  0.111111      2.000000
  0.250000 -0.250000  0.111111      2.000000
  0.333333 -0.250000  0.111111      2.000000
  0.416667 -0.250000  0.111111      2.000000
  0.500000 -0.250000  0.111111      2.000000
 -0.416667 -0.250000  0.111111      2.000000
 -0.333333 -0.250000  0.111111      2.000000
 -0.250000 -0.250000  0.111111      2.000000
 -0.166667 -0.250000  0.111111      2.000000
 -0.083333 -0.250000  0.111111      2.000000
  0.000000 -0.166667  0.111111      2.000000
  0.083333 -0.166667  0.111111      2.000000
  0.166667 -0.166667  0.111111      2.000000
  0.250000 -0.166667  0.111111      2.000000
  0.333333 -0.166667  0.111111      2.000000
  0.416667 -0.166667  0.111111      2.000000
  0.500000 -0.166667  0.111111      2.000000
 -0.416667 -0.166667  0.111111      2.000000
 -0.333333 -0.166667  0.111111      2.000000
 -0.250000 -0.166667  0.111111      2.000000
 -0.166667 -0.166667  0.111111      2.000000
 -0.083333 -0.166667  0.111111      2.000000
  0.000000 -0.083333  0.111111      2.000000
  0.083333 -0.083333  0.111111      2.000000
  0.166667 -0.083333  0.111111      2.000000
  0.250000 -0.083333  0.111111      2.000000
  0.333333 -0.083333  0.111111      2.000000
  0.416667 -0.083333  0.111111      2.000000
  0.500000 -0.083333  0.111111      2.000000
 -0.416667 -0.083333  0.111111      2.000000
 -0.333333 -0.083333  0.111111      2.000000
 -0.250000 -0.083333  0.111111      2.000000
 -0.166667 -0.083333  0.111111      2.000000
 -0.083333 -0.083333  0.111111      2.000000
  0.000000  0.000000  0.222222      2.000000
  0.083333  0.000000  0.222222      2.000000
  0.166667  0.000000  0.222222      2.000000
  0.250000  0.000000  0.222222      2.000000
  0.333333  0.000000  0.222222      2.000000
  0.416667  0.000000  0.222222      2.000000
  0.500000  0.000000  0.222222      2.000000
 -0.416667  0.000000  0.222222      2.000000
 -0.333333  0.000000  0.222222      2.000000
 -0.250000  0.000000  0.222222      2.000000
 -0.166667  0.000000  0.222222      2.000000
 -0.083333  0.000000  0.222222      2.000000
  0.000000  0.083333  0.222222      2.000000
  0.083333  0.083333  0.222222      2.000000
  0.166667  0.083333  0.222222      2.000000
  0.250000  0.083333  0.222222      2.000000
  0.333333  0.083333  0.222222      2.000000
  0.416667  0.083333  0.222222      2.000000
  0.500000  0.083333  0.222222      2.000000
 -0.416667  0.083333  0.222222      2.000000
 -0.333333  0.083333  0.222222      2.000000
 -0.250000  0.083333  0.222222      2.000000
 -0.166667  0.083333  0.222222      2.000000
 -0.083333  0.083333  0.222222      2.000000
  0.000000  0.166667  0.222222      2.000000
  0.083333  0.166667  0.222222      2.000000
  0.166667  0.166667  0.222222      2.000000
  0.250000  0.166667  0.222222      2.000000
  0.333333  0.166667  0.222222      2.000000
  0.416667  0.166667  0.222222      2.000000
  0.500000  0.166667  0.222222      2.000000
 -0.416667  0.166667  0.222222      2.000000
 -0.333333  0.166667  0.222222      2.000000
 -0.250000  0.166667  0.222222      2.000000
 -0.166667  0.166667  0.222222      2.000000
 -0.083333  0.166667  0.222222      2.000000
  0.000000  0.250000  0.222222      2.000000
  0.083333  0.250000  0.222222      2.000000
  0.166667  0.250000  0.222222      2.000000
  0.250000  0.250000  0.222222      2.000000
  0.333333  0.250000  0.222222      2.000000
  0.416667  0.250000  0.222222      2.000000
  0.500000  0.250000  0.222222      2.000000
 -0.416667  0.250000  0.222222      2.000000
 -0.333333  0.250000  0.222222      2.000000
 -0.250000  0.250000  0.222222      2.000000
 -0.166667  0.250000  0.222222      2.000000
 -0.083333  0.250000  0.222222      2.000000
  0.000000  0.333333  0.222222      2.000000
  0.083333  0.333333  0.222222      2.000000
  0.166667  0.333333  0.222222      2.000000
  0.250000  0.333333  0.222222      2.000000
  0.333333  0.333333  0.222222      2.000000
  0.416667  0.333333  0.222222      2.000000
  0.500000  0.333333  0.222222      2.000000
 -0.416667  0.333333  0.222222      2.000000
 -0.333333  0.333333  0.222222      2.000000
 -0.250000  0.333333  0.222222      2.000000
 -0.166667  0.333333  0.222222      2.000000
 -0.083333  0.333333  0.222222      2.000000
  0.000000  0.416667  0.222222      2.000000
  0.083333  0.416667  0.222222      2.000000
  0.166667  0.416667  0.222222      2.000000
  0.250000  0.416667  0.222222      2.000000
  0.333333  0.416667  0.222222      2.000000
  0.416667  0.416667  0.222222      2.000000
  0.500000  0.416667  0.222222      2.000000
 -0.416667  0.416667  0.222222      2.000000
 -0.333333  0.416667  0.222222      2.000000
 -0.250000  0.416667  0.222222      2.000000
 -0.166667  0.416667  0.222222      2.000000
 -0.083333  0.416667  0.222222      2.000000
  0.000000  0.500000  0.222222      2.000000
  0.083333  0.500000  0.222222      2.000000
  0.166667  0.500000  0.222222      2.000000
  0.250000  0.500000  0.222222      2.000000
  0.333333  0.500000  0.222222      2.000000
  0.416667  0.500000  0.222222      2.000000
  0.500000  0.500000  0.222222      2.000000
 -0.416667  0.500000  0.222222      2.000000
 -0.333333  0.500000  0.222222      2.000000
 -0.250000  0.500000  0.222222      2.000000
 -0.166667  0.500000  0.222222      2.000000
 -0.083333  0.500000  0.222222      2.000000
  0.000000 -0.416667  0.222222      2.000000
  0.083333 -0.416667  0.222222      2.000000
  0.166667 -0.416667  0.222222      2.000000
  0.250000 -0.416667  0.222222      2.000000
  0.333333 -0.416667  0.222222      2.000000
  0.416667 -0.416667  0.222222      2.000000
  0.500000 -0.416667  0.222222      2.000000
 -0.416667 -0.416667  0.222222      2.000000
 -0.333333 -0.416667  0.222222      2.000000
 -0.250000 -0.416667  0.222222      2.000000
 -0.166667 -0.416667  0.222222      2.000000
 -0.083333 -0.416667  0.222222      2.000000
  0.000000 -0.333333  0.222222      2.000000
  0.083333 -0.333333  0.222222      2.000000
  0.166667 -0.333333  0.222222      2.000000
  0.250000 -0.333333  0.222222      2.000000
  0.333333 -0.333333  0.222222      2.000000
  0.416667 -0.333333  0.222222      2.000000
  0.500000 -0.333333  0.222222      2.000000
 -0.416667 -0.333333  0.222222      2.000000
 -0.333333 -0.333333  0.222222      2.000000
 -0.250000 -0.333333  0.222222      2.000000
 -0.166667 -0.333333  0.222222      2.000000
 -0.083333 -0.333333  0.222222      2.000000
  0.000000 -0.250000  0.222222      2.000000
  0.083333 -0.250000  0.222222      2.000000
  0.166667 -0.250000  0.222222      2.000000
  0.250000 -0.250000  0.222222      2.000000
  0.333333 -0.250000  0.222222      2.000000
  0.416667 -0.250000  0.222222      2.000000
  0.500000 -0.250000  0.222222      2.000000
 -0.416667 -0.250000  0.222222      2.000000
 -0.333333 -0.250000  0.222222      2.000000
 -0.250000 -0.250000  0.222222      2.000000
 -0.166667 -0.250000  0.222222      2.000000
 -0.083333 -0.250000  0.222222      2.000000
  0.000000 -0.166667  0.222222      2.000000
  0.083333 -0.166667  0.222222      2.000000
  0.166667 -0.166667  0.222222      2.000000
  0.250000 -0.166667  0.222222      2.000000
  0.333333 -0.166667  0.222222      2.000000
  0.416667 -0.166667  0.222222      2.000000
  0.500000 -0.166667  0.222222      2.000000
 -0.416667 -0.166667  0.222222      2.000000
 -0.333333 -0.166667  0.222222      2.000000
 -0.250000 -0.166667  0.222222      2.000000
 -0.166667 -0.166667  0.222222      2.000000
 -0.083333 -0.166667  0.222222      2.000000
  0.000000 -0.083333  0.222222      2.000000
  0.083333 -0.083333  0.222222      2.000000
  0.166667 -0.083333  0.222222      2.000000
  0.250000 -0.083333  0.222222      2.000000
  0.333333 -0.083333  0.222222      2.000000
  0.416667 -0.083333  0.222222      2.000000
  0.500000 -0.083333  0.222222      2.000000
 -0.416667 -0.083333  0.222222      2.000000
 -0.333333 -0.083333  0.222222      2.000000
 -0.250000 -0.083333  0.222222      2.000000
 -0.166667 -0.083333  0.222222      2.000000
 -0.083333 -0.083333  0.222222      2.000000
  0.000000  0.000000  0.333333      2.000000
  0.083333  0.000000  0.333333      2.000000
  0.166667  0.000000  0.333333      2.000000
  0.250000  0.000000  0.333333      2.000000
  0.333333  0.000000  0.333333      2.000000
  0.416667  0.000000  0.333333      2.000000
  0.500000  0.000000  0.333333      2.000000
 -0.416667  0.000000  0.333333      2.000000
 -0.333333  0.000000  0.333333      2.000000
 -0.250000  0.000000  0.333333      2.000000
 -0.166667  0.000000  0.333333      2.000000
 -0.083333  0.000000  0.333333      2.000000
  0.000000  0.083333  0.333333      2.000000
  0.083333  0.083333  0.333333      2.000000
  0.166667  0.083333  0.333333      2.000000
  0.250000  0.083333  0.333333      2.000000
  0.333333  0.083333  0.333333      2.000000
  0.416667  0.083333  0.333333      2.000000
  0.500000  0.083333  0.333333      2.000000
 -0.416667  0.083333  0.333333      2.000000
 -0.333333  0.083333  0.333333      2.000000
 -0.250000  0.083333  0.333333      2.000000
 -0.166667  0.083333  0.333333      2.000000
 -0.083333  0.083333  0.333333      2.000000
  0.000000  0.166667  0.333333      2.000000
  0.083333  0.166667  0.333333      2.000000
  0.166667  0.166667  0.333333      2.000000
  0.250000  0.166667  0.333333      2.000000
  0.333333  0.166667  0.333333      2.000000
  0.416667  0.166667  0.333333      2.000000
  0.500000  0.166667  0.333333      2.000000
 -0.416667  0.166667  0.333333      2.000000
 -0.333333  0.166667  0.333333      2.000000
 -0.250000  0.166667  0.333333      2.000000
 -0.166667  0.166667  0.333333      2.000000
 -0.083333  0.166667  0.333333      2.000000
  0.000000  0.250000  0.333333      2.000000
  0.083333  0.250000  0.333333      2.000000
  0.166667  0.250000  0.333333      2.000000
  0.250000  0.250000  0.333333      2.000000
  0.333333  0.250000  0.333333      2.000000
  0.416667  0.250000  0.333333      2.000000
  0.500000  0.250000  0.333333      2.000000
 -0.416667  0.250000  0.333333      2.000000
 -0.333333  0.250000  0.333333      2.000000
 -0.250000  0.250000  0.333333      2.000000
 -0.166667  0.250000  0.333333      2.000000
 -0.083333  0.250000  0.333333      2.000000
  0.000000  0.333333  0.333333      2.000000
  0.083333  0.333333  0.333333      2.000000
  0.166667  0.333333  0.333333      2.000000
  0.250000  0.333333  0.333333      2.000000
  0.333333  0.333333  0.333333      2.000000
  0.416667  0.333333  0.333333      2.000000
  0.500000  0.333333  0.333333      2.000000
 -0.416667  0.333333  0.333333      2.000000
 -0.333333  0.333333  0.333333      2.000000
 -0.250000  0.333333  0.333333      2.000000
 -0.166667  0.333333  0.333333      2.000000
 -0.083333  0.333333  0.333333      2.000000
  0.000000  0.416667  0.333333      2.000000
  0.083333  0.416667  0.333333      2.000000
  0.166667  0.416667  0.333333      2.000000
  0.250000  0.416667  0.333333      2.000000
  0.333333  0.416667  0.333333      2.000000
  0.416667  0.416667  0.333333      2.000000
  0.500000  0.416667  0.333333      2.000000
 -0.416667  0.416667  0.333333      2.000000
 -0.333333  0.416667  0.333333      2.000000
 -0.250000  0.416667  0.333333      2.000000
 -0.166667  0.416667  0.333333      2.000000
 -0.083333  0.416667  0.333333      2.000000
  0.000000  0.500000  0.333333      2.000000
  0.083333  0.500000  0.333333      2.000000
  0.166667  0.500000  0.333333      2.000000
  0.250000  0.500000  0.333333      2.000000
  0.333333  0.500000  0.333333      2.000000
  0.416667  0.500000  0.333333      2.000000
  0.500000  0.500000  0.333333      2.000000
 -0.416667  0.500000  0.333333      2.000000
 -0.333333  0.500000  0.333333      2.000000
 -0.250000  0.500000  0.333333      2.000000
 -0.166667  0.500000  0.333333      2.000000
 -0.083333  0.500000  0.333333      2.000000
  0.000000 -0.416667  0.333333      2.000000
  0.083333 -0.416667  0.333333      2.000000
  0.166667 -0.416667  0.333333      2.000000
  0.250000 -0.416667  0.333333      2.000000
  0.333333 -0.416667  0.333333      2.000000
  0.416667 -0.416667  0.333333      2.000000
  0.500000 -0.416667  0.333333      2.000000
 -0.416667 -0.416667  0.333333      2.000000
 -0.333333 -0.416667  0.333333      2.000000
 -0.250000 -0.416667  0.333333      2.000000
 -0.166667 -0.416667  0.333333      2.000000
 -0.083333 -0.416667  0.333333      2.000000
  0.000000 -0.333333  0.333333      2.000000
  0.083333 -0.333333  0.333333      2.000000
  0.166667 -0.333333  0.333333      2.000000
  0.250000 -0.333333  0.333333      2.000000
  0.333333 -0.333333  0.333333      2.000000
  0.416667 -0.333333  0.333333      2.000000
  0.500000 -0.333333  0.333333      2.000000
 -0.416667 -0.333333  0.333333      2.000000
 -0.333333 -0.333333  0.333333      2.000000
 -0.250000 -0.333333  0.333333      2.000000
 -0.166667 -0.333333  0.333333      2.000000
 -0.083333 -0.333333  0.333333      2.000000
  0.000000 -0.250000  0.333333      2.000000
  0.083333 -0.250000  0.333333      2.000000
  0.166667 -0.250000  0.333333      2.000000
  0.250000 -0.250000  0.333333      2.000000
  0.333333 -0.250000  0.333333      2.000000
  0.416667 -0.250000  0.333333      2.000000
  0.500000 -0.250000  0.333333      2.000000
 -0.416667 -0.250000  0.333333      2.000000
 -0.333333 -0.250000  0.333333      2.000000
 -0.250000 -0.250000  0.333333      2.000000
 -0.166667 -0.250000  0.333333      2.000000
 -0.083333 -0.250000  0.333333      2.000000
  0.000000 -0.166667  0.333333      2.000000
  0.083333 -0.166667  0.333333      2.000000
  0.166667 -0.166667  0.333333      2.000000
  0.250000 -0.166667  0.333333      2.000000
  0.333333 -0.166667  0.333333      2.000000
  0.416667 -0.166667  0.333333      2.000000
  0.500000 -0.166667  0.333333      2.000000
 -0.416667 -0.166667  0.333333      2.000000
 -0.333333 -0.166667  0.333333      2.000000
 -0.250000 -0.166667  0.333333      2.000000
 -0.166667 -0.166667  0.333333      2.000000
 -0.083333 -0.166667  0.333333      2.000000
  0.000000 -0.083333  0.333333      2.000000
  0.083333 -0.083333  0.333333      2.000000
  0.166667 -0.083333  0.333333      2.000000
  0.250000 -0.083333  0.333333      2.000000
  0.333333 -0.083333  0.333333      2.000000
  0.416667 -0.083333  0.333333      2.000000
  0.500000 -0.083333  0.333333      2.000000
 -0.416667 -0.083333  0.333333      2.000000
 -0.333333 -0.083333  0.333333      2.000000
 -0.250000 -0.083333  0.333333      2.000000
 -0.166667 -0.083333  0.333333      2.000000
 -0.083333 -0.083333  0.333333      2.000000
  0.000000  0.000000  0.444444      2.000000
  0.083333  0.000000  0.444444      2.000000
  0.166667  0.000000  0.444444      2.000000
  0.250000  0.000000  0.444444      2.000000
  0.333333  0.000000  0.444444      2.000000
  0.416667  0.000000  0.444444      2.000000
  0.500000  0.000000  0.444444      2.000000
 -0.416667  0.000000  0.444444      2.000000
 -0.333333  0.000000  0.444444      2.000000
 -0.250000  0.000000  0.444444      2.000000
 -0.166667  0.000000  0.444444      2.000000
 -0.083333  0.000000  0.444444      2.000000
  0.000000  0.083333  0.444444      2.000000
  0.083333  0.083333  0.444444      2.000000
  0.166667  0.083333  0.444444      2.000000
  0.250000  0.083333  0.444444      2.000000
  0.333333  0.083333  0.444444      2.000000
  0.416667  0.083333  0.444444      2.000000
  0.500000  0.083333  0.444444      2.000000
 -0.416667  0.083333  0.444444      2.000000
 -0.333333  0.083333  0.444444      2.000000
 -0.250000  0.083333  0.444444      2.000000
 -0.166667  0.083333  0.444444      2.000000
 -0.083333  0.083333  0.444444      2.000000
  0.000000  0.166667  0.444444      2.000000
  0.083333  0.166667  0.444444      2.000000
  0.166667  0.166667  0.444444      2.000000
  0.250000  0.166667  0.444444      2.000000
  0.333333  0.166667  0.444444      2.000000
  0.416667  0.166667  0.444444      2.000000
  0.500000  0.166667  0.444444      2.000000
 -0.416667  0.166667  0.444444      2.000000
 -0.333333  0.166667  0.444444      2.000000
 -0.250000  0.166667  0.444444      2.000000
 -0.166667  0.166667  0.444444      2.000000
 -0.083333  0.166667  0.444444      2.000000
  0.000000  0.250000  0.444444      2.000000
  0.083333  0.250000  0.444444      2.000000
  0.166667  0.250000  0.444444      2.000000
  0.250000  0.250000  0.444444      2.000000
  0.333333  0.250000  0.444444      2.000000
  0.416667  0.250000  0.444444      2.000000
  0.500000  0.250000  0.444444      2.000000
 -0.416667  0.250000  0.444444      2.000000
 -0.333333  0.250000  0.444444      2.000000
 -0.250000  0.250000  0.444444      2.000000
 -0.166667  0.250000  0.444444      2.000000
 -0.083333  0.250000  0.444444      2.000000
  0.000000  0.333333  0.444444      2.000000
  0.083333  0.333333  0.444444      2.000000
  0.166667  0.333333  0.444444      2.000000
  0.250000  0.333333  0.444444      2.000000
  0.333333  0.333333  0.444444      2.000000
  0.416667  0.333333  0.444444      2.000000
  0.500000  0.333333  0.444444      2.000000
 -0.416667  0.333333  0.444444      2.000000
 -0.333333  0.333333  0.444444      2.000000
 -0.250000  0.333333  0.444444      2.000000
 -0.166667  0.333333  0.444444      2.000000
 -0.083333  0.333333  0.444444      2.000000
  0.000000  0.416667  0.444444      2.000000
  0.083333  0.416667  0.444444      2.000000
  0.166667  0.416667  0.444444      2.000000
  0.250000  0.416667  0.444444      2.000000
  0.333333  0.416667  0.444444      2.000000
  0.416667  0.416667  0.444444      2.000000
  0.500000  0.416667  0.444444      2.000000
 -0.416667  0.416667  0.444444      2.000000
 -0.333333  0.416667  0.444444      2.000000
 -0.250000  0.416667  0.444444      2.000000
 -0.166667  0.416667  0.444444      2.000000
 -0.083333  0.416667  0.444444      2.000000
  0.000000  0.500000  0.444444      2.000000
  0.083333  0.500000  0.444444      2.000000
  0.166667  0.500000  0.444444      2.000000
  0.250000  0.500000  0.444444      2.000000
  0.333333  0.500000  0.444444      2.000000
  0.416667  0.500000  0.444444      2.000000
  0.500000  0.500000  0.444444      2.000000
 -0.416667  0.500000  0.444444      2.000000
 -0.333333  0.500000  0.444444      2.000000
 -0.250000  0.500000  0.444444      2.000000
 -0.166667  0.500000  0.444444      2.000000
 -0.083333  0.500000  0.444444      2.000000
  0.000000 -0.416667  0.444444      2.000000
  0.083333 -0.416667  0.444444      2.000000
  0.166667 -0.416667  0.444444      2.000000
  0.250000 -0.416667  0.444444      2.000000
  0.333333 -0.416667  0.444444      2.000000
  0.416667 -0.416667  0.444444      2.000000
  0.500000 -0.416667  0.444444      2.000000
 -0.416667 -0.416667  0.444444      2.000000
 -0.333333 -0.416667  0.444444      2.000000
 -0.250000 -0.416667  0.444444      2.000000
 -0.166667 -0.416667  0.444444      2.000000
 -0.083333 -0.416667  0.444444      2.000000
  0.000000 -0.333333  0.444444      2.000000
  0.083333 -0.333333  0.444444      2.000000
  0.166667 -0.333333  0.444444      2.000000
  0.250000 -0.333333  0.444444      2.000000
  0.333333 -0.333333  0.444444      2.000000
  0.416667 -0.333333  0.444444      2.000000
  0.500000 -0.333333  0.444444      2.000000
 -0.416667 -0.333333  0.444444      2.000000
 -0.333333 -0.333333  0.444444      2.000000
 -0.250000 -0.333333  0.444444      2.000000
 -0.166667 -0.333333  0.444444      2.000000
 -0.083333 -0.333333  0.444444      2.000000
  0.000000 -0.250000  0.444444      2.000000
  0.083333 -0.250000  0.444444      2.000000
  0.166667 -0.250000  0.444444      2.000000
  0.250000 -0.250000  0.444444      2.000000
  0.333333 -0.250000  0.444444      2.000000
  0.416667 -0.250000  0.444444      2.000000
  0.500000 -0.250000  0.444444      2.000000
 -0.416667 -0.250000  0.444444      2.000000
 -0.333333 -0.250000  0.444444      2.000000
 -0.250000 -0.250000  0.444444      2.000000
 -0.166667 -0.250000  0.444444      2.000000
 -0.083333 -0.250000  0.444444      2.000000
  0.000000 -0.166667  0.444444      2.000000
  0.083333 -0.166667  0.444444      2.000000
  0.166667 -0.166667  0.444444      2.000000
  0.250000 -0.166667  0.444444      2.000000
  0.333333 -0.166667  0.444444      2.000000
  0.416667 -0.166667  0.444444      2.000000
  0.500000 -0.166667  0.444444      2.000000
 -0.416667 -0.166667  0.444444      2.000000
 -0.333333 -0.166667  0.444444      2.000000
 -0.250000 -0.166667  0.444444      2.000000
 -0.166667 -0.166667  0.444444      2.000000
 -0.083333 -0.166667  0.444444      2.000000
  0.000000 -0.083333  0.444444      2.000000
  0.083333 -0.083333  0.444444      2.000000
  0.166667 -0.083333  0.444444      2.000000
  0.250000 -0.083333  0.444444      2.000000
  0.333333 -0.083333  0.444444      2.000000
  0.416667 -0.083333  0.444444      2.000000
  0.500000 -0.083333  0.444444      2.000000
 -0.416667 -0.083333  0.444444      2.000000
 -0.333333 -0.083333  0.444444      2.000000
 -0.250000 -0.083333  0.444444      2.000000
 -0.166667 -0.083333  0.444444      2.000000
 -0.083333 -0.083333  0.444444      2.000000
 
 Following cartesian coordinates:
            Coordinates               Weight
  0.000000 -0.000000  0.000000      1.000000
  0.016966 -0.008954  0.000000      2.000000
  0.033932 -0.017909  0.000000      2.000000
  0.050898 -0.026863  0.000000      2.000000
  0.067864 -0.035817  0.000000      2.000000
  0.084830 -0.044772  0.000000      2.000000
  0.101796 -0.053726  0.000000      1.000000
  0.016966  0.008954 -0.000000      2.000000
  0.033932  0.000000  0.000000      2.000000
  0.050898 -0.008954  0.000000      2.000000
  0.067864 -0.017909  0.000000      2.000000
  0.084830 -0.026863  0.000000      2.000000
  0.101796 -0.035817  0.000000      2.000000
  0.118762 -0.044772  0.000000      2.000000
 -0.067864  0.053726 -0.000000      2.000000
 -0.050898  0.044772 -0.000000      2.000000
 -0.033932  0.035817 -0.000000      2.000000
 -0.016966  0.026863 -0.000000      2.000000
 -0.000000  0.017909 -0.000000      2.000000
  0.033932  0.017909 -0.000000      2.000000
  0.050898  0.008954 -0.000000      2.000000
  0.067864  0.000000  0.000000      2.000000
  0.084830 -0.008954  0.000000      2.000000
  0.101796 -0.017909  0.000000      2.000000
  0.118762 -0.026863  0.000000      2.000000
  0.135728 -0.035817  0.000000      2.000000
 -0.050898  0.062680 -0.000000      2.000000
 -0.033932  0.053726 -0.000000      2.000000
 -0.016966  0.044772 -0.000000      2.000000
 -0.000000  0.035817 -0.000000      2.000000
  0.016966  0.026863 -0.000000      2.000000
  0.050898  0.026863 -0.000000      2.000000
  0.067864  0.017909 -0.000000      2.000000
  0.084830  0.008954 -0.000000      2.000000
  0.101796  0.000000  0.000000      2.000000
  0.118762 -0.008954  0.000000      2.000000
  0.135728 -0.017909  0.000000      2.000000
  0.152695 -0.026863  0.000000      2.000000
 -0.033932  0.071635 -0.000000      2.000000
 -0.016966  0.062680 -0.000000      2.000000
 -0.000000  0.053726 -0.000000      2.000000
  0.016966  0.044772 -0.000000      2.000000
  0.033932  0.035817 -0.000000      2.000000
  0.067864  0.035817 -0.000000      2.000000
  0.084830  0.026863 -0.000000      2.000000
  0.101796  0.017909 -0.000000      2.000000
  0.118762  0.008954  0.000000      2.000000
  0.135728  0.000000  0.000000      2.000000
  0.152695 -0.008954  0.000000      2.000000
  0.169661 -0.017909  0.000000      2.000000
 -0.016966  0.080589 -0.000000      2.000000
 -0.000000  0.071635 -0.000000      2.000000
  0.016966  0.062680 -0.000000      2.000000
  0.033932  0.053726 -0.000000      2.000000
  0.050898  0.044772 -0.000000      2.000000
  0.084830  0.044772 -0.000000      2.000000
  0.101796  0.035817 -0.000000      2.000000
  0.118762  0.026863 -0.000000      2.000000
  0.135728  0.017909 -0.000000      2.000000
  0.152695  0.008954  0.000000      2.000000
  0.169661  0.000000  0.000000      2.000000
  0.186627 -0.008954  0.000000      2.000000
 -0.000000  0.089543 -0.000000      2.000000
  0.016966  0.080589 -0.000000      2.000000
  0.033932  0.071635 -0.000000      2.000000
  0.050898  0.062680 -0.000000      2.000000
  0.067864  0.053726 -0.000000      2.000000
  0.101796  0.053726 -0.000000      1.000000
  0.118762  0.044772 -0.000000      2.000000
  0.135728  0.035817 -0.000000      2.000000
  0.152695  0.026863 -0.000000      2.000000
  0.169661  0.017909 -0.000000      2.000000
  0.186627  0.008954  0.000000      2.000000
  0.203593  0.000000  0.000000      1.000000
 -0.000000 -0.000000  0.020726      2.000000
  0.016966 -0.008954  0.020726      2.000000
  0.033932 -0.017909  0.020726      2.000000
  0.050898 -0.026863  0.020726      2.000000
  0.067864 -0.035817  0.020726      2.000000
  0.084830 -0.044772  0.020726      2.000000
  0.101796 -0.053726  0.020726      2.000000
 -0.084830  0.044772  0.020726      2.000000
 -0.067864  0.035817  0.020726      2.000000
 -0.050898  0.026863  0.020726      2.000000
 -0.033932  0.017909  0.020726      2.000000
 -0.016966  0.008954  0.020726      2.000000
  0.016966  0.008954  0.020726      2.000000
  0.033932 -0.000000  0.020726      2.000000
  0.050898 -0.008954  0.020726      2.000000
  0.067864 -0.017909  0.020726      2.000000
  0.084830 -0.026863  0.020726      2.000000
  0.101796 -0.035817  0.020726      2.000000
  0.118762 -0.044772  0.020726      2.000000
 -0.067864  0.053726  0.020726      2.000000
 -0.050898  0.044772  0.020726      2.000000
 -0.033932  0.035817  0.020726      2.000000
 -0.016966  0.026863  0.020726      2.000000
 -0.000000  0.017909  0.020726      2.000000
  0.033932  0.017909  0.020726      2.000000
  0.050898  0.008954  0.020726      2.000000
  0.067864 -0.000000  0.020726      2.000000
  0.084830 -0.008954  0.020726      2.000000
  0.101796 -0.017909  0.020726      2.000000
  0.118762 -0.026863  0.020726      2.000000
  0.135728 -0.035817  0.020726      2.000000
 -0.050898  0.062680  0.020726      2.000000
 -0.033932  0.053726  0.020726      2.000000
 -0.016966  0.044772  0.020726      2.000000
 -0.000000  0.035817  0.020726      2.000000
  0.016966  0.026863  0.020726      2.000000
  0.050898  0.026863  0.020726      2.000000
  0.067864  0.017909  0.020726      2.000000
  0.084830  0.008954  0.020726      2.000000
  0.101796 -0.000000  0.020726      2.000000
  0.118762 -0.008954  0.020726      2.000000
  0.135728 -0.017909  0.020726      2.000000
  0.152695 -0.026863  0.020726      2.000000
 -0.033932  0.071635  0.020726      2.000000
 -0.016966  0.062680  0.020726      2.000000
 -0.000000  0.053726  0.020726      2.000000
  0.016966  0.044772  0.020726      2.000000
  0.033932  0.035817  0.020726      2.000000
  0.067864  0.035817  0.020726      2.000000
  0.084830  0.026863  0.020726      2.000000
  0.101796  0.017909  0.020726      2.000000
  0.118762  0.008954  0.020726      2.000000
  0.135728 -0.000000  0.020726      2.000000
  0.152695 -0.008954  0.020726      2.000000
  0.169661 -0.017909  0.020726      2.000000
 -0.016966  0.080589  0.020726      2.000000
 -0.000000  0.071635  0.020726      2.000000
  0.016966  0.062680  0.020726      2.000000
  0.033932  0.053726  0.020726      2.000000
  0.050898  0.044772  0.020726      2.000000
  0.084830  0.044772  0.020726      2.000000
  0.101796  0.035817  0.020726      2.000000
  0.118762  0.026863  0.020726      2.000000
  0.135728  0.017909  0.020726      2.000000
  0.152695  0.008954  0.020726      2.000000
  0.169661 -0.000000  0.020726      2.000000
  0.186627 -0.008954  0.020726      2.000000
 -0.000000  0.089543  0.020726      2.000000
  0.016966  0.080589  0.020726      2.000000
  0.033932  0.071635  0.020726      2.000000
  0.050898  0.062680  0.020726      2.000000
  0.067864  0.053726  0.020726      2.000000
  0.101796  0.053726  0.020726      2.000000
  0.118762  0.044772  0.020726      2.000000
  0.135728  0.035817  0.020726      2.000000
  0.152695  0.026863  0.020726      2.000000
  0.169661  0.017909  0.020726      2.000000
  0.186627  0.008954  0.020726      2.000000
  0.203593 -0.000000  0.020726      2.000000
  0.016966  0.098498  0.020726      2.000000
  0.033932  0.089543  0.020726      2.000000
  0.050898  0.080589  0.020726      2.000000
  0.067864  0.071635  0.020726      2.000000
  0.084830  0.062680  0.020726      2.000000
 -0.084830 -0.044772  0.020726      2.000000
 -0.067864 -0.053726  0.020726      2.000000
 -0.050898 -0.062680  0.020726      2.000000
 -0.033932 -0.071635  0.020726      2.000000
 -0.016966 -0.080589  0.020726      2.000000
  0.000000 -0.089543  0.020726      2.000000
  0.016966 -0.098498  0.020726      2.000000
 -0.169661 -0.000000  0.020726      2.000000
 -0.152695 -0.008954  0.020726      2.000000
 -0.135728 -0.017909  0.020726      2.000000
 -0.118762 -0.026863  0.020726      2.000000
 -0.101796 -0.035817  0.020726      2.000000
 -0.067864 -0.035817  0.020726      2.000000
 -0.050898 -0.044772  0.020726      2.000000
 -0.033932 -0.053726  0.020726      2.000000
 -0.016966 -0.062680  0.020726      2.000000
  0.000000 -0.071635  0.020726      2.000000
  0.016966 -0.080589  0.020726      2.000000
  0.033932 -0.089543  0.020726      2.000000
 -0.152695  0.008954  0.020726      2.000000
 -0.135728 -0.000000  0.020726      2.000000
 -0.118762 -0.008954  0.020726      2.000000
 -0.101796 -0.017909  0.020726      2.000000
 -0.084830 -0.026863  0.020726      2.000000
 -0.050898 -0.026863  0.020726      2.000000
 -0.033932 -0.035817  0.020726      2.000000
 -0.016966 -0.044772  0.020726      2.000000
  0.000000 -0.053726  0.020726      2.000000
  0.016966 -0.062680  0.020726      2.000000
  0.033932 -0.071635  0.020726      2.000000
  0.050898 -0.080589  0.020726      2.000000
 -0.135728  0.017909  0.020726      2.000000
 -0.118762  0.008954  0.020726      2.000000
 -0.101796 -0.000000  0.020726      2.000000
 -0.084830 -0.008954  0.020726      2.000000
 -0.067864 -0.017909  0.020726      2.000000
 -0.033932 -0.017909  0.020726      2.000000
 -0.016966 -0.026863  0.020726      2.000000
  0.000000 -0.035817  0.020726      2.000000
  0.016966 -0.044772  0.020726      2.000000
  0.033932 -0.053726  0.020726      2.000000
  0.050898 -0.062680  0.020726      2.000000
  0.067864 -0.071635  0.020726      2.000000
 -0.118762  0.026863  0.020726      2.000000
 -0.101796  0.017909  0.020726      2.000000
 -0.084830  0.008954  0.020726      2.000000
 -0.067864 -0.000000  0.020726      2.000000
 -0.050898 -0.008954  0.020726      2.000000
 -0.016966 -0.008954  0.020726      2.000000
  0.000000 -0.017909  0.020726      2.000000
  0.016966 -0.026863  0.020726      2.000000
  0.033932 -0.035817  0.020726      2.000000
  0.050898 -0.044772  0.020726      2.000000
  0.067864 -0.053726  0.020726      2.000000
  0.084830 -0.062680  0.020726      2.000000
 -0.101796  0.035817  0.020726      2.000000
 -0.084830  0.026863  0.020726      2.000000
 -0.067864  0.017909  0.020726      2.000000
 -0.050898  0.008954  0.020726      2.000000
 -0.033932 -0.000000  0.020726      2.000000
 -0.000000 -0.000000  0.041452      2.000000
  0.016966 -0.008954  0.041452      2.000000
  0.033932 -0.017909  0.041452      2.000000
  0.050898 -0.026863  0.041452      2.000000
  0.067864 -0.035817  0.041452      2.000000
  0.084830 -0.044772  0.041452      2.000000
  0.101796 -0.053726  0.041452      2.000000
 -0.084830  0.044772  0.041452      2.000000
 -0.067864  0.035817  0.041452      2.000000
 -0.050898  0.026863  0.041452      2.000000
 -0.033932  0.017909  0.041452      2.000000
 -0.016966  0.008954  0.041452      2.000000
  0.016966  0.008954  0.041452      2.000000
  0.033932 -0.000000  0.041452      2.000000
  0.050898 -0.008954  0.041452      2.000000
  0.067864 -0.017909  0.041452      2.000000
  0.084830 -0.026863  0.041452      2.000000
  0.101796 -0.035817  0.041452      2.000000
  0.118762 -0.044772  0.041452      2.000000
 -0.067864  0.053726  0.041452      2.000000
 -0.050898  0.044772  0.041452      2.000000
 -0.033932  0.035817  0.041452      2.000000
 -0.016966  0.026863  0.041452      2.000000
 -0.000000  0.017909  0.041452      2.000000
  0.033932  0.017909  0.041452      2.000000
  0.050898  0.008954  0.041452      2.000000
  0.067864 -0.000000  0.041452      2.000000
  0.084830 -0.008954  0.041452      2.000000
  0.101796 -0.017909  0.041452      2.000000
  0.118762 -0.026863  0.041452      2.000000
  0.135728 -0.035817  0.041452      2.000000
 -0.050898  0.062680  0.041452      2.000000
 -0.033932  0.053726  0.041452      2.000000
 -0.016966  0.044772  0.041452      2.000000
 -0.000000  0.035817  0.041452      2.000000
  0.016966  0.026863  0.041452      2.000000
  0.050898  0.026863  0.041452      2.000000
  0.067864  0.017909  0.041452      2.000000
  0.084830  0.008954  0.041452      2.000000
  0.101796 -0.000000  0.041452      2.000000
  0.118762 -0.008954  0.041452      2.000000
  0.135728 -0.017909  0.041452      2.000000
  0.152695 -0.026863  0.041452      2.000000
 -0.033932  0.071635  0.041452      2.000000
 -0.016966  0.062680  0.041452      2.000000
 -0.000000  0.053726  0.041452      2.000000
  0.016966  0.044772  0.041452      2.000000
  0.033932  0.035817  0.041452      2.000000
  0.067864  0.035817  0.041452      2.000000
  0.084830  0.026863  0.041452      2.000000
  0.101796  0.017909  0.041452      2.000000
  0.118762  0.008954  0.041452      2.000000
  0.135728 -0.000000  0.041452      2.000000
  0.152695 -0.008954  0.041452      2.000000
  0.169661 -0.017909  0.041452      2.000000
 -0.016966  0.080589  0.041452      2.000000
 -0.000000  0.071635  0.041452      2.000000
  0.016966  0.062680  0.041452      2.000000
  0.033932  0.053726  0.041452      2.000000
  0.050898  0.044772  0.041452      2.000000
  0.084830  0.044772  0.041452      2.000000
  0.101796  0.035817  0.041452      2.000000
  0.118762  0.026863  0.041452      2.000000
  0.135728  0.017909  0.041452      2.000000
  0.152695  0.008954  0.041452      2.000000
  0.169661 -0.000000  0.041452      2.000000
  0.186627 -0.008954  0.041452      2.000000
 -0.000000  0.089543  0.041452      2.000000
  0.016966  0.080589  0.041452      2.000000
  0.033932  0.071635  0.041452      2.000000
  0.050898  0.062680  0.041452      2.000000
  0.067864  0.053726  0.041452      2.000000
  0.101796  0.053726  0.041452      2.000000
  0.118762  0.044772  0.041452      2.000000
  0.135728  0.035817  0.041452      2.000000
  0.152695  0.026863  0.041452      2.000000
  0.169661  0.017909  0.041452      2.000000
  0.186627  0.008954  0.041452      2.000000
  0.203593 -0.000000  0.041452      2.000000
  0.016966  0.098498  0.041452      2.000000
  0.033932  0.089543  0.041452      2.000000
  0.050898  0.080589  0.041452      2.000000
  0.067864  0.071635  0.041452      2.000000
  0.084830  0.062680  0.041452      2.000000
 -0.084830 -0.044772  0.041452      2.000000
 -0.067864 -0.053726  0.041452      2.000000
 -0.050898 -0.062680  0.041452      2.000000
 -0.033932 -0.071635  0.041452      2.000000
 -0.016966 -0.080589  0.041452      2.000000
  0.000000 -0.089543  0.041452      2.000000
  0.016966 -0.098498  0.041452      2.000000
 -0.169661 -0.000000  0.041452      2.000000
 -0.152695 -0.008954  0.041452      2.000000
 -0.135728 -0.017909  0.041452      2.000000
 -0.118762 -0.026863  0.041452      2.000000
 -0.101796 -0.035817  0.041452      2.000000
 -0.067864 -0.035817  0.041452      2.000000
 -0.050898 -0.044772  0.041452      2.000000
 -0.033932 -0.053726  0.041452      2.000000
 -0.016966 -0.062680  0.041452      2.000000
  0.000000 -0.071635  0.041452      2.000000
  0.016966 -0.080589  0.041452      2.000000
  0.033932 -0.089543  0.041452      2.000000
 -0.152695  0.008954  0.041452      2.000000
 -0.135728 -0.000000  0.041452      2.000000
 -0.118762 -0.008954  0.041452      2.000000
 -0.101796 -0.017909  0.041452      2.000000
 -0.084830 -0.026863  0.041452      2.000000
 -0.050898 -0.026863  0.041452      2.000000
 -0.033932 -0.035817  0.041452      2.000000
 -0.016966 -0.044772  0.041452      2.000000
  0.000000 -0.053726  0.041452      2.000000
  0.016966 -0.062680  0.041452      2.000000
  0.033932 -0.071635  0.041452      2.000000
  0.050898 -0.080589  0.041452      2.000000
 -0.135728  0.017909  0.041452      2.000000
 -0.118762  0.008954  0.041452      2.000000
 -0.101796 -0.000000  0.041452      2.000000
 -0.084830 -0.008954  0.041452      2.000000
 -0.067864 -0.017909  0.041452      2.000000
 -0.033932 -0.017909  0.041452      2.000000
 -0.016966 -0.026863  0.041452      2.000000
  0.000000 -0.035817  0.041452      2.000000
  0.016966 -0.044772  0.041452      2.000000
  0.033932 -0.053726  0.041452      2.000000
  0.050898 -0.062680  0.041452      2.000000
  0.067864 -0.071635  0.041452      2.000000
 -0.118762  0.026863  0.041452      2.000000
 -0.101796  0.017909  0.041452      2.000000
 -0.084830  0.008954  0.041452      2.000000
 -0.067864 -0.000000  0.041452      2.000000
 -0.050898 -0.008954  0.041452      2.000000
 -0.016966 -0.008954  0.041452      2.000000
  0.000000 -0.017909  0.041452      2.000000
  0.016966 -0.026863  0.041452      2.000000
  0.033932 -0.035817  0.041452      2.000000
  0.050898 -0.044772  0.041452      2.000000
  0.067864 -0.053726  0.041452      2.000000
  0.084830 -0.062680  0.041452      2.000000
 -0.101796  0.035817  0.041452      2.000000
 -0.084830  0.026863  0.041452      2.000000
 -0.067864  0.017909  0.041452      2.000000
 -0.050898  0.008954  0.041452      2.000000
 -0.033932 -0.000000  0.041452      2.000000
 -0.000000 -0.000000  0.062179      2.000000
  0.016966 -0.008954  0.062179      2.000000
  0.033932 -0.017909  0.062179      2.000000
  0.050898 -0.026863  0.062179      2.000000
  0.067864 -0.035817  0.062179      2.000000
  0.084830 -0.044772  0.062179      2.000000
  0.101796 -0.053726  0.062179      2.000000
 -0.084830  0.044772  0.062179      2.000000
 -0.067864  0.035817  0.062179      2.000000
 -0.050898  0.026863  0.062179      2.000000
 -0.033932  0.017909  0.062179      2.000000
 -0.016966  0.008954  0.062179      2.000000
  0.016966  0.008954  0.062179      2.000000
  0.033932 -0.000000  0.062179      2.000000
  0.050898 -0.008954  0.062179      2.000000
  0.067864 -0.017909  0.062179      2.000000
  0.084830 -0.026863  0.062179      2.000000
  0.101796 -0.035817  0.062179      2.000000
  0.118762 -0.044772  0.062179      2.000000
 -0.067864  0.053726  0.062179      2.000000
 -0.050898  0.044772  0.062179      2.000000
 -0.033932  0.035817  0.062179      2.000000
 -0.016966  0.026863  0.062179      2.000000
 -0.000000  0.017909  0.062179      2.000000
  0.033932  0.017909  0.062179      2.000000
  0.050898  0.008954  0.062179      2.000000
  0.067864 -0.000000  0.062179      2.000000
  0.084830 -0.008954  0.062179      2.000000
  0.101796 -0.017909  0.062179      2.000000
  0.118762 -0.026863  0.062179      2.000000
  0.135728 -0.035817  0.062179      2.000000
 -0.050898  0.062680  0.062179      2.000000
 -0.033932  0.053726  0.062179      2.000000
 -0.016966  0.044772  0.062179      2.000000
 -0.000000  0.035817  0.062179      2.000000
  0.016966  0.026863  0.062179      2.000000
  0.050898  0.026863  0.062179      2.000000
  0.067864  0.017909  0.062179      2.000000
  0.084830  0.008954  0.062179      2.000000
  0.101796 -0.000000  0.062179      2.000000
  0.118762 -0.008954  0.062179      2.000000
  0.135728 -0.017909  0.062179      2.000000
  0.152695 -0.026863  0.062179      2.000000
 -0.033932  0.071635  0.062179      2.000000
 -0.016966  0.062680  0.062179      2.000000
 -0.000000  0.053726  0.062179      2.000000
  0.016966  0.044772  0.062179      2.000000
  0.033932  0.035817  0.062179      2.000000
  0.067864  0.035817  0.062179      2.000000
  0.084830  0.026863  0.062179      2.000000
  0.101796  0.017909  0.062179      2.000000
  0.118762  0.008954  0.062179      2.000000
  0.135728 -0.000000  0.062179      2.000000
  0.152695 -0.008954  0.062179      2.000000
  0.169661 -0.017909  0.062179      2.000000
 -0.016966  0.080589  0.062179      2.000000
 -0.000000  0.071635  0.062179      2.000000
  0.016966  0.062680  0.062179      2.000000
  0.033932  0.053726  0.062179      2.000000
  0.050898  0.044772  0.062179      2.000000
  0.084830  0.044772  0.062179      2.000000
  0.101796  0.035817  0.062179      2.000000
  0.118762  0.026863  0.062179      2.000000
  0.135728  0.017909  0.062179      2.000000
  0.152695  0.008954  0.062179      2.000000
  0.169661 -0.000000  0.062179      2.000000
  0.186627 -0.008954  0.062179      2.000000
 -0.000000  0.089543  0.062179      2.000000
  0.016966  0.080589  0.062179      2.000000
  0.033932  0.071635  0.062179      2.000000
  0.050898  0.062680  0.062179      2.000000
  0.067864  0.053726  0.062179      2.000000
  0.101796  0.053726  0.062179      2.000000
  0.118762  0.044772  0.062179      2.000000
  0.135728  0.035817  0.062179      2.000000
  0.152695  0.026863  0.062179      2.000000
  0.169661  0.017909  0.062179      2.000000
  0.186627  0.008954  0.062179      2.000000
  0.203593 -0.000000  0.062179      2.000000
  0.016966  0.098498  0.062179      2.000000
  0.033932  0.089543  0.062179      2.000000
  0.050898  0.080589  0.062179      2.000000
  0.067864  0.071635  0.062179      2.000000
  0.084830  0.062680  0.062179      2.000000
 -0.084830 -0.044772  0.062179      2.000000
 -0.067864 -0.053726  0.062179      2.000000
 -0.050898 -0.062680  0.062179      2.000000
 -0.033932 -0.071635  0.062179      2.000000
 -0.016966 -0.080589  0.062179      2.000000
  0.000000 -0.089543  0.062179      2.000000
  0.016966 -0.098498  0.062179      2.000000
 -0.169661 -0.000000  0.062179      2.000000
 -0.152695 -0.008954  0.062179      2.000000
 -0.135728 -0.017909  0.062179      2.000000
 -0.118762 -0.026863  0.062179      2.000000
 -0.101796 -0.035817  0.062179      2.000000
 -0.067864 -0.035817  0.062179      2.000000
 -0.050898 -0.044772  0.062179      2.000000
 -0.033932 -0.053726  0.062179      2.000000
 -0.016966 -0.062680  0.062179      2.000000
  0.000000 -0.071635  0.062179      2.000000
  0.016966 -0.080589  0.062179      2.000000
  0.033932 -0.089543  0.062179      2.000000
 -0.152695  0.008954  0.062179      2.000000
 -0.135728 -0.000000  0.062179      2.000000
 -0.118762 -0.008954  0.062179      2.000000
 -0.101796 -0.017909  0.062179      2.000000
 -0.084830 -0.026863  0.062179      2.000000
 -0.050898 -0.026863  0.062179      2.000000
 -0.033932 -0.035817  0.062179      2.000000
 -0.016966 -0.044772  0.062179      2.000000
  0.000000 -0.053726  0.062179      2.000000
  0.016966 -0.062680  0.062179      2.000000
  0.033932 -0.071635  0.062179      2.000000
  0.050898 -0.080589  0.062179      2.000000
 -0.135728  0.017909  0.062179      2.000000
 -0.118762  0.008954  0.062179      2.000000
 -0.101796 -0.000000  0.062179      2.000000
 -0.084830 -0.008954  0.062179      2.000000
 -0.067864 -0.017909  0.062179      2.000000
 -0.033932 -0.017909  0.062179      2.000000
 -0.016966 -0.026863  0.062179      2.000000
  0.000000 -0.035817  0.062179      2.000000
  0.016966 -0.044772  0.062179      2.000000
  0.033932 -0.053726  0.062179      2.000000
  0.050898 -0.062680  0.062179      2.000000
  0.067864 -0.071635  0.062179      2.000000
 -0.118762  0.026863  0.062179      2.000000
 -0.101796  0.017909  0.062179      2.000000
 -0.084830  0.008954  0.062179      2.000000
 -0.067864 -0.000000  0.062179      2.000000
 -0.050898 -0.008954  0.062179      2.000000
 -0.016966 -0.008954  0.062179      2.000000
 -0.000000 -0.017909  0.062179      2.000000
  0.016966 -0.026863  0.062179      2.000000
  0.033932 -0.035817  0.062179      2.000000
  0.050898 -0.044772  0.062179      2.000000
  0.067864 -0.053726  0.062179      2.000000
  0.084830 -0.062680  0.062179      2.000000
 -0.101796  0.035817  0.062179      2.000000
 -0.084830  0.026863  0.062179      2.000000
 -0.067864  0.017909  0.062179      2.000000
 -0.050898  0.008954  0.062179      2.000000
 -0.033932 -0.000000  0.062179      2.000000
 -0.000000 -0.000000  0.082905      2.000000
  0.016966 -0.008954  0.082905      2.000000
  0.033932 -0.017909  0.082905      2.000000
  0.050898 -0.026863  0.082905      2.000000
  0.067864 -0.035817  0.082905      2.000000
  0.084830 -0.044772  0.082905      2.000000
  0.101796 -0.053726  0.082905      2.000000
 -0.084830  0.044772  0.082905      2.000000
 -0.067864  0.035817  0.082905      2.000000
 -0.050898  0.026863  0.082905      2.000000
 -0.033932  0.017909  0.082905      2.000000
 -0.016966  0.008954  0.082905      2.000000
  0.016966  0.008954  0.082905      2.000000
  0.033932 -0.000000  0.082905      2.000000
  0.050898 -0.008954  0.082905      2.000000
  0.067864 -0.017909  0.082905      2.000000
  0.084830 -0.026863  0.082905      2.000000
  0.101796 -0.035817  0.082905      2.000000
  0.118762 -0.044772  0.082905      2.000000
 -0.067864  0.053726  0.082905      2.000000
 -0.050898  0.044772  0.082905      2.000000
 -0.033932  0.035817  0.082905      2.000000
 -0.016966  0.026863  0.082905      2.000000
 -0.000000  0.017909  0.082905      2.000000
  0.033932  0.017909  0.082905      2.000000
  0.050898  0.008954  0.082905      2.000000
  0.067864 -0.000000  0.082905      2.000000
  0.084830 -0.008954  0.082905      2.000000
  0.101796 -0.017909  0.082905      2.000000
  0.118762 -0.026863  0.082905      2.000000
  0.135728 -0.035817  0.082905      2.000000
 -0.050898  0.062680  0.082905      2.000000
 -0.033932  0.053726  0.082905      2.000000
 -0.016966  0.044772  0.082905      2.000000
 -0.000000  0.035817  0.082905      2.000000
  0.016966  0.026863  0.082905      2.000000
  0.050898  0.026863  0.082905      2.000000
  0.067864  0.017909  0.082905      2.000000
  0.084830  0.008954  0.082905      2.000000
  0.101796 -0.000000  0.082905      2.000000
  0.118762 -0.008954  0.082905      2.000000
  0.135728 -0.017909  0.082905      2.000000
  0.152695 -0.026863  0.082905      2.000000
 -0.033932  0.071635  0.082905      2.000000
 -0.016966  0.062680  0.082905      2.000000
 -0.000000  0.053726  0.082905      2.000000
  0.016966  0.044772  0.082905      2.000000
  0.033932  0.035817  0.082905      2.000000
  0.067864  0.035817  0.082905      2.000000
  0.084830  0.026863  0.082905      2.000000
  0.101796  0.017909  0.082905      2.000000
  0.118762  0.008954  0.082905      2.000000
  0.135728 -0.000000  0.082905      2.000000
  0.152695 -0.008954  0.082905      2.000000
  0.169661 -0.017909  0.082905      2.000000
 -0.016966  0.080589  0.082905      2.000000
 -0.000000  0.071635  0.082905      2.000000
  0.016966  0.062680  0.082905      2.000000
  0.033932  0.053726  0.082905      2.000000
  0.050898  0.044772  0.082905      2.000000
  0.084830  0.044772  0.082905      2.000000
  0.101796  0.035817  0.082905      2.000000
  0.118762  0.026863  0.082905      2.000000
  0.135728  0.017909  0.082905      2.000000
  0.152695  0.008954  0.082905      2.000000
  0.169661 -0.000000  0.082905      2.000000
  0.186627 -0.008954  0.082905      2.000000
 -0.000000  0.089543  0.082905      2.000000
  0.016966  0.080589  0.082905      2.000000
  0.033932  0.071635  0.082905      2.000000
  0.050898  0.062680  0.082905      2.000000
  0.067864  0.053726  0.082905      2.000000
  0.101796  0.053726  0.082905      2.000000
  0.118762  0.044772  0.082905      2.000000
  0.135728  0.035817  0.082905      2.000000
  0.152695  0.026863  0.082905      2.000000
  0.169661  0.017909  0.082905      2.000000
  0.186627  0.008954  0.082905      2.000000
  0.203593 -0.000000  0.082905      2.000000
  0.016966  0.098498  0.082905      2.000000
  0.033932  0.089543  0.082905      2.000000
  0.050898  0.080589  0.082905      2.000000
  0.067864  0.071635  0.082905      2.000000
  0.084830  0.062680  0.082905      2.000000
 -0.084830 -0.044772  0.082905      2.000000
 -0.067864 -0.053726  0.082905      2.000000
 -0.050898 -0.062680  0.082905      2.000000
 -0.033932 -0.071635  0.082905      2.000000
 -0.016966 -0.080589  0.082905      2.000000
  0.000000 -0.089543  0.082905      2.000000
  0.016966 -0.098498  0.082905      2.000000
 -0.169661 -0.000000  0.082905      2.000000
 -0.152695 -0.008954  0.082905      2.000000
 -0.135728 -0.017909  0.082905      2.000000
 -0.118762 -0.026863  0.082905      2.000000
 -0.101796 -0.035817  0.082905      2.000000
 -0.067864 -0.035817  0.082905      2.000000
 -0.050898 -0.044772  0.082905      2.000000
 -0.033932 -0.053726  0.082905      2.000000
 -0.016966 -0.062680  0.082905      2.000000
  0.000000 -0.071635  0.082905      2.000000
  0.016966 -0.080589  0.082905      2.000000
  0.033932 -0.089543  0.082905      2.000000
 -0.152695  0.008954  0.082905      2.000000
 -0.135728 -0.000000  0.082905      2.000000
 -0.118762 -0.008954  0.082905      2.000000
 -0.101796 -0.017909  0.082905      2.000000
 -0.084830 -0.026863  0.082905      2.000000
 -0.050898 -0.026863  0.082905      2.000000
 -0.033932 -0.035817  0.082905      2.000000
 -0.016966 -0.044772  0.082905      2.000000
  0.000000 -0.053726  0.082905      2.000000
  0.016966 -0.062680  0.082905      2.000000
  0.033932 -0.071635  0.082905      2.000000
  0.050898 -0.080589  0.082905      2.000000
 -0.135728  0.017909  0.082905      2.000000
 -0.118762  0.008954  0.082905      2.000000
 -0.101796 -0.000000  0.082905      2.000000
 -0.084830 -0.008954  0.082905      2.000000
 -0.067864 -0.017909  0.082905      2.000000
 -0.033932 -0.017909  0.082905      2.000000
 -0.016966 -0.026863  0.082905      2.000000
  0.000000 -0.035817  0.082905      2.000000
  0.016966 -0.044772  0.082905      2.000000
  0.033932 -0.053726  0.082905      2.000000
  0.050898 -0.062680  0.082905      2.000000
  0.067864 -0.071635  0.082905      2.000000
 -0.118762  0.026863  0.082905      2.000000
 -0.101796  0.017909  0.082905      2.000000
 -0.084830  0.008954  0.082905      2.000000
 -0.067864 -0.000000  0.082905      2.000000
 -0.050898 -0.008954  0.082905      2.000000
 -0.016966 -0.008954  0.082905      2.000000
 -0.000000 -0.017909  0.082905      2.000000
  0.016966 -0.026863  0.082905      2.000000
  0.033932 -0.035817  0.082905      2.000000
  0.050898 -0.044772  0.082905      2.000000
  0.067864 -0.053726  0.082905      2.000000
  0.084830 -0.062680  0.082905      2.000000
 -0.101796  0.035817  0.082905      2.000000
 -0.084830  0.026863  0.082905      2.000000
 -0.067864  0.017909  0.082905      2.000000
 -0.050898  0.008954  0.082905      2.000000
 -0.033932 -0.000000  0.082905      2.000000
 


--------------------------------------------------------------------------------------------------------




 Dimension of arrays:
   k-points           NKPTS =    650   k-points in BZ     NKDIM =    650   number of bands    NBANDS=     24
   number of dos      NEDOS =    301   number of ions     NIONS =      8
   non local maximal  LDIM  =      4   non local SUM 2l+1 LMDIM =      8
   total plane-waves  NPLWV =  64000
   max r-space proj   IRMAX =   3933   max aug-charges    IRDMAX= 139897
   dimension x,y,z NGX =    40 NGY =   40 NGZ =   40
   dimension x,y,z NGXF=    80 NGYF=   80 NGZF=   80
   support grid    NGXF=   160 NGYF=  160 NGZF=  160
   ions per type =               8
 NGX,Y,Z   is equivalent  to a cutoff of  12.64, 12.64, 12.40 a.u.
 NGXF,Y,Z  is equivalent  to a cutoff of  25.28, 25.28, 24.81 a.u.


 I would recommend the setting:
   dimension x,y,z NGX =    39 NGY =   39 NGZ =   40
 SYSTEM =  matgen-scf                              
 POSCAR =  Si8                                     

 Startparameter for this run:
   NWRITE =      2    write-flag & timer
   PREC   = accura    normal or accurate (medium, high low for compatibility)
   ISTART =      0    job   : 0-new  1-cont  2-samecut
   ICHARG =      2    charge: 1-file 2-atom 10-const
   ISPIN  =      1    spin polarized calculation?
   LNONCOLLINEAR =      F non collinear calculations
   LSORBIT =      F    spin-orbit coupling
   INIWAV =      1    electr: 0-lowe 1-rand  2-diag
   LASPH  =      F    aspherical Exc in radial PAW
   METAGGA=      F    non-selfconsistent MetaGGA calc.

 Electronic Relaxation 1
   ENCUT  =  520.0 eV  38.22 Ry    6.18 a.u.   9.78  9.78  9.97*2*pi/ulx,y,z
   ENINI  =  520.0     initial cutoff
   ENAUG  =  322.1 eV  augmentation charge cutoff
   NELM   =    140;   NELMIN=  6; NELMDL= -5     # of ELM steps 
   EDIFF  = 0.1E-03   stopping-criterion for ELM
   LREAL  =      T    real-space projection
   NLSPLINE    = F    spline interpolate recip. space projectors
   LCOMPAT=      F    compatible to vasp.4.4
   GGA_COMPAT  = T    GGA compatible to vasp.4.4-vasp.4.6
   LMAXPAW     = -100 max onsite density
   LMAXMIX     =    2 max onsite mixed and CHGCAR
   VOSKOWN=      0    Vosko Wilk Nusair interpolation
   ROPT   =   -0.00025
 Ionic relaxation
   EDIFFG = -.1E-01   stopping-criterion for IOM
   NSW    =      0    number of steps for IOM
   NBLOCK =      1;   KBLOCK =      1    inner block; outer block 
   IBRION =     -1    ionic relax: 0-MD 1-quasi-New 2-CG
   NFREE  =      0    steps in history (QN), initial steepest desc. (CG)
   ISIF   =      2    stress and relaxation
   IWAVPR =     10    prediction:  0-non 1-charg 2-wave 3-comb
   ISYM   =      0    0-nonsym 1-usesym 2-fastsym
   LCORR  =      T    Harris-Foulkes like correction to forces

   POTIM  = 0.0500    time-step for ionic-motion
   TEIN   =    0.0    initial temperature
   TEBEG  =    0.0;   TEEND  =   0.0 temperature during run
   SMASS  =  -3.00    Nose mass-parameter (am)
   estimated Nose-frequenzy (Omega)   =  0.10E-29 period in steps =****** mass=  -0.633E-27a.u.
   SCALEE = 1.0000    scale energy and forces
   NPACO  =    256;   APACO  = 16.0  distance and # of slots for P.C.
   PSTRESS=    0.0 pullay stress

  Mass of Ions in am
   POMASS =  28.09
  Ionic Valenz
   ZVAL   =   4.00
  Atomic Wigner-Seitz radii
   RWIGS  =  -1.00
  virtual crystal weights 
   VCA    =   1.00
   NELECT =      32.0000    total number of electrons
   NUPDOWN=      -1.0000    fix difference up-down

 DOS related values:
   EMIN   =  10.00;   EMAX   =-10.00  energy-range for DOS
   EFERMI =   0.00
   ISMEAR =     0;   SIGMA  =   0.05  broadening in eV -4-tet -1-fermi 0-gaus

 Electronic relaxation 2 (details)
   IALGO  =     38    algorithm
   LDIAG  =      T    sub-space diagonalisation (order eigenvalues)
   LSUBROT=      F    optimize rotation matrix (better conditioning)
   TURBO    =      0    0=normal 1=particle mesh
   IRESTART =      0    0=no restart 2=restart with 2 vectors
   NREBOOT  =      0    no. of reboots
   NMIN     =      0    reboot dimension
   EREF     =   0.00    reference energy to select bands
   IMIX   =      4    mixing-type and parameters
     AMIX     =   0.10;   BMIX     =  1.20
     AMIX_MAG =   0.40;   BMIX_MAG =  1.20
     AMIN     =   0.10
     WC   =   100.;   INIMIX=   1;  MIXPRE=   1;  MAXMIX= -45

 Intra band minimization:
   WEIMIN = 0.0000     energy-eigenvalue tresh-hold
   EBREAK =  0.10E-05  absolut break condition
   DEPER  =   0.30     relativ break condition  

   TIME   =   0.40     timestep for ELM

  volume/ion in A,a.u.               =      15.32       103.36
  Fermi-wavevector in a.u.,A,eV,Ry     =   1.046440  1.977485 14.898879  1.095037
  Thomas-Fermi vector in A             =   2.181278
 
 Write flags
   LWAVE  =      F    write WAVECAR
   LCHARG =      T    write CHGCAR
   LVTOT  =      F    write LOCPOT, total local potential
   LVHAR  =      F    write LOCPOT, Hartree potential only
   LELF   =      F    write electronic localiz. function (ELF)
   LORBIT =     11    0 simple, 1 ext, 2 COOP (PROOUT)


 Dipole corrections
   LMONO  =      F    monopole corrections only (constant potential shift)
   LDIPOL =      F    correct potential (dipole corrections)
   IDIPOL =      0    1-x, 2-y, 3-z, 4-all directions 
   EPSILON=  1.0000000 bulk dielectric constant

 Exchange correlation treatment:
   GGA     =    --    GGA type
   LEXCH   =     8    internal setting for exchange type
   VOSKOWN=      0    Vosko Wilk Nusair interpolation
   LHFCALC =     F    Hartree Fock is set to
   LHFONE  =     F    Hartree Fock one center treatment
   AEXX    =    0.0000 exact exchange contribution

 Linear response parameters
   LEPSILON=     F    determine dielectric tensor
   LRPA    =     F    only Hartree local field effects (RPA)
   LNABLA  =     F    use nabla operator in PAW spheres
   LVEL    =     F    velocity operator in full k-point grid
   LINTERFAST=   F  fast interpolation
   KINTER  =     0    interpolate to denser k-point grid
   CSHIFT  =0.1000    complex shift for real part using Kramers Kronig
   OMEGAMAX=  -1.0    maximum frequency
   DEG_THRESHOLD= 0.2000000E-02 threshold for treating states as degnerate
   RTIME   =    0.100 relaxation time in fs

 Orbital magnetization related:
   ORBITALMAG=     F  switch on orbital magnetization
   LCHIMAG   =     F  perturbation theory with respect to B field
   DQ        =  0.001000  dq finite difference perturbation B field



--------------------------------------------------------------------------------------------------------


 Static calculation
 charge density and potential will be updated during run
 non-spin polarized calculation
 Variant of blocked Davidson
 Davidson routine will perform the subspace rotation
 perform sub-space diagonalisation
    after iterative eigenvector-optimisation
 modified Broyden-mixing scheme, WC =      100.0
 initial mixing is a Kerker type mixing with AMIX =  0.1000 and BMIX =      1.2000
 Hartree-type preconditioning will be used
 using additional bands            8
 real space projection scheme for non local part
 use partial core corrections
 calculate Harris-corrections to forces 
   (improved forces if not selfconsistent)
 use gradient corrections 
 use of overlap-Matrix (Vanderbilt PP)
 Gauss-broadening in eV      SIGMA  =   0.05


--------------------------------------------------------------------------------------------------------


  energy-cutoff  :      520.00
  volume of cell :      122.53
      direct lattice vectors                 reciprocal lattice vectors
     2.455883162 -4.653239982 -0.000000005     0.203592748 -0.107452012  0.000000000
     2.455883161  4.653239994  0.000000010     0.203592747  0.107452012 -0.000000000
    -0.000000001  0.000000016  5.360907350    -0.000000000 -0.000000000  0.186535587

  length of vectors
     5.261559126  5.261559136  5.360907350     0.230208475  0.230208474  0.186535587


 
 k-points in units of 2pi/SCALE and weight: K-Mesh                                  
   0.00000000 -0.00000000  0.00000000       0.001
   0.01696606 -0.00895433  0.00000000       0.002
   0.03393212 -0.01790867  0.00000000       0.002
   0.05089819 -0.02686300  0.00000000       0.002
   0.06786425 -0.03581734  0.00000000       0.002
   0.08483031 -0.04477167  0.00000000       0.002
   0.10179637 -0.05372601  0.00000000       0.001
   0.01696606  0.00895433 -0.00000000       0.002
   0.03393212  0.00000000  0.00000000       0.002
   0.05089819 -0.00895433  0.00000000       0.002
   0.06786425 -0.01790867  0.00000000       0.002
   0.08483031 -0.02686300  0.00000000       0.002
   0.10179637 -0.03581734  0.00000000       0.002
   0.11876244 -0.04477167  0.00000000       0.002
  -0.06786425  0.05372601 -0.00000000       0.002
  -0.05089819  0.04477167 -0.00000000       0.002
  -0.03393212  0.03581734 -0.00000000       0.002
  -0.01696606  0.02686300 -0.00000000       0.002
  -0.00000000  0.01790867 -0.00000000       0.002
   0.03393212  0.01790867 -0.00000000       0.002
   0.05089819  0.00895433 -0.00000000       0.002
   0.06786425  0.00000000  0.00000000       0.002
   0.08483031 -0.00895433  0.00000000       0.002
   0.10179637 -0.01790867  0.00000000       0.002
   0.11876244 -0.02686300  0.00000000       0.002
   0.13572850 -0.03581734  0.00000000       0.002
  -0.05089819  0.06268034 -0.00000000       0.002
  -0.03393212  0.05372601 -0.00000000       0.002
  -0.01696606  0.04477167 -0.00000000       0.002
  -0.00000000  0.03581734 -0.00000000       0.002
   0.01696606  0.02686300 -0.00000000       0.002
   0.05089819  0.02686300 -0.00000000       0.002
   0.06786425  0.01790867 -0.00000000       0.002
   0.08483031  0.00895433 -0.00000000       0.002
   0.10179637  0.00000000  0.00000000       0.002
   0.11876244 -0.00895433  0.00000000       0.002
   0.13572850 -0.01790867  0.00000000       0.002
   0.15269456 -0.02686300  0.00000000       0.002
  -0.03393212  0.07163467 -0.00000000       0.002
  -0.01696606  0.06268034 -0.00000000       0.002
  -0.00000000  0.05372601 -0.00000000       0.002
   0.01696606  0.04477167 -0.00000000       0.002
   0.03393212  0.03581734 -0.00000000       0.002
   0.06786425  0.03581734 -0.00000000       0.002
   0.08483031  0.02686300 -0.00000000       0.002
   0.10179637  0.01790867 -0.00000000       0.002
   0.11876244  0.00895433  0.00000000       0.002
   0.13572850  0.00000000  0.00000000       0.002
   0.15269456 -0.00895433  0.00000000       0.002
   0.16966062 -0.01790867  0.00000000       0.002
  -0.01696606  0.08058901 -0.00000000       0.002
  -0.00000000  0.07163467 -0.00000000       0.002
   0.01696606  0.06268034 -0.00000000       0.002
   0.03393212  0.05372601 -0.00000000       0.002
   0.05089819  0.04477167 -0.00000000       0.002
   0.08483031  0.04477167 -0.00000000       0.002
   0.10179637  0.03581734 -0.00000000       0.002
   0.11876244  0.02686300 -0.00000000       0.002
   0.13572850  0.01790867 -0.00000000       0.002
   0.15269456  0.00895433  0.00000000       0.002
   0.16966062  0.00000000  0.00000000       0.002
   0.18662669 -0.00895433  0.00000000       0.002
  -0.00000000  0.08954334 -0.00000000       0.002
   0.01696606  0.08058901 -0.00000000       0.002
   0.03393212  0.07163467 -0.00000000       0.002
   0.05089819  0.06268034 -0.00000000       0.002
   0.06786425  0.05372601 -0.00000000       0.002
   0.10179637  0.05372601 -0.00000000       0.001
   0.11876244  0.04477167 -0.00000000       0.002
   0.13572850  0.03581734 -0.00000000       0.002
   0.15269456  0.02686300 -0.00000000       0.002
   0.16966062  0.01790867 -0.00000000       0.002
   0.18662669  0.00895433  0.00000000       0.002
   0.20359275  0.00000000  0.00000000       0.001
  -0.00000000 -0.00000000  0.02072618       0.002
   0.01696606 -0.00895433  0.02072618       0.002
   0.03393212 -0.01790867  0.02072618       0.002
   0.05089819 -0.02686300  0.02072618       0.002
   0.06786425 -0.03581734  0.02072618       0.002
   0.08483031 -0.04477167  0.02072618       0.002
   0.10179637 -0.05372601  0.02072618       0.002
  -0.08483031  0.04477167  0.02072618       0.002
  -0.06786425  0.03581734  0.02072618       0.002
  -0.05089819  0.02686300  0.02072618       0.002
  -0.03393212  0.01790867  0.02072618       0.002
  -0.01696606  0.00895433  0.02072618       0.002
   0.01696606  0.00895433  0.02072618       0.002
   0.03393212 -0.00000000  0.02072618       0.002
   0.05089819 -0.00895433  0.02072618       0.002
   0.06786425 -0.01790867  0.02072618       0.002
   0.08483031 -0.02686300  0.02072618       0.002
   0.10179637 -0.03581734  0.02072618       0.002
   0.11876244 -0.04477167  0.02072618       0.002
  -0.06786425  0.05372601  0.02072618       0.002
  -0.05089819  0.04477167  0.02072618       0.002
  -0.03393212  0.03581734  0.02072618       0.002
  -0.01696606  0.02686300  0.02072618       0.002
  -0.00000000  0.01790867  0.02072618       0.002
   0.03393212  0.01790867  0.02072618       0.002
   0.05089819  0.00895433  0.02072618       0.002
   0.06786425 -0.00000000  0.02072618       0.002
   0.08483031 -0.00895433  0.02072618       0.002
   0.10179637 -0.01790867  0.02072618       0.002
   0.11876244 -0.02686300  0.02072618       0.002
   0.13572850 -0.03581734  0.02072618       0.002
  -0.05089819  0.06268034  0.02072618       0.002
  -0.03393212  0.05372601  0.02072618       0.002
  -0.01696606  0.04477167  0.02072618       0.002
  -0.00000000  0.03581734  0.02072618       0.002
   0.01696606  0.02686300  0.02072618       0.002
   0.05089819  0.02686300  0.02072618       0.002
[...]
      1      -3.5788      2.00000
      2      -3.0262      2.00000
      3       2.1566      2.00000
      4       2.2780      2.00000
      5       2.5885      2.00000
      6       2.8202      2.00000
      7       3.0439      2.00000
      8       3.4015      2.00000
      9       3.8729      2.00000
     10       4.2506      2.00000
     11       4.8561      2.00000
     12       5.3257      2.00000
     13       5.4286      2.00000
     14       5.8343      2.00000
     15       5.8878      2.00000
     16       7.2876      2.00000
     17      11.0180      0.00000
     18      11.4436      0.00000
     19      11.9843      0.00000
     20      12.3481      0.00000
     21      12.5153      0.00000
     22      13.0235      0.00000
     23      13.7140      0.00000
     24      13.9496      0.00000

 k-point   640 :       0.0833   -0.0833    0.4444
  band No.  band energies     occupation 
      1      -3.5854      2.00000
      2      -3.0329      2.00000
      3       1.7313      2.00000
      4       2.2060      2.00000
      5       2.4742      2.00000
      6       2.9766      2.00000
      7       3.6476      2.00000
      8       4.0293      2.00000
      9       4.1942      2.00000
     10       4.3541      2.00000
     11       4.6511      2.00000
     12       4.6802      2.00000
     13       5.2118      2.00000
     14       5.6701      2.00000
     15       5.8619      2.00000
     16       7.2883      2.00000
     17      10.6502      0.00000
     18      11.4126      0.00000
     19      12.2845      0.00000
     20      12.4862      0.00000
     21      12.6737      0.00000
     22      13.0355      0.00000
     23      13.6873      0.00000
     24      14.0562      0.00000

 k-point   641 :       0.1667   -0.0833    0.4444
  band No.  band energies     occupation 
      1      -3.4874      2.00000
      2      -2.9352      2.00000
      3       1.3364      2.00000
      4       1.8330      2.00000
      5       1.8935      2.00000
      6       2.4221      2.00000
      7       3.5730      2.00000
      8       4.0729      2.00000
      9       4.4404      2.00000
     10       4.6932      2.00000
     11       5.0002      2.00000
     12       5.1175      2.00000
     13       5.9329      2.00000
     14       6.0369      2.00000
     15       6.3776      2.00000
     16       7.3785      2.00000
     17      10.2836      0.00000
     18      11.0168      0.00000
     19      11.8898      0.00000
     20      12.5335      0.00000
     21      12.5751      0.00000
     22      12.7062      0.00000
     23      13.2811      0.00000
     24      13.6517      0.00000

 k-point   642 :       0.2500   -0.0833    0.4444
  band No.  band energies     occupation 
      1      -3.2850      2.00000
      2      -2.7335      2.00000
      3       1.0205      2.00000
      4       1.0206      2.00000
      5       1.5274      2.00000
      6       1.5577      2.00000
      7       3.2186      2.00000
      8       3.7281      2.00000
      9       5.1420      2.00000
     10       5.3163      2.00000
     11       5.6207      2.00000
     12       5.7366      2.00000
     13       6.3920      2.00000
     14       7.0491      2.00000
     15       7.3928      2.00000
     16       7.5621      2.00000
     17       9.9742      0.00000
     18      10.5026      0.00000
     19      11.4877      0.00000
     20      11.7650      0.00000
     21      11.9613      0.00000
     22      12.1803      0.00000
     23      12.4729      0.00000
     24      13.6401      0.00000

 k-point   643 :       0.3333   -0.0833    0.4444
  band No.  band energies     occupation 
      1      -2.9787      2.00000
      2      -2.4284      2.00000
      3       0.1516      2.00000
      4       0.6889      2.00000
      5       0.8011      2.00000
      6       1.3084      2.00000
      7       2.8814      2.00000
      8       3.3905      2.00000
      9       5.9411      2.00000
     10       6.0736      2.00000
     11       6.1483      2.00000
     12       6.6032      2.00000
     13       6.9897      2.00000
     14       7.7708      2.00000
     15       8.0433      2.00000
     16       8.1344      2.00000
     17       9.7434      0.00000
     18      10.2232      0.00000
     19      10.7755      0.00000
     20      11.1364      0.00000
     21      11.3669      0.00000
     22      11.4027      0.00000
     23      12.1705      0.00000
     24      13.5237      0.00000

 k-point   644 :       0.4167   -0.0833    0.4444
  band No.  band energies     occupation 
      1      -2.5696      2.00000
      2      -2.0212      2.00000
      3      -0.6494      2.00000
      4      -0.1068      2.00000
      5       0.6716      2.00000
      6       1.1835      2.00000
      7       2.6181      2.00000
      8       3.1244      2.00000
      9       6.4566      2.00000
     10       6.8972      2.00000
     11       7.0508      2.00000
     12       7.5263      2.00000
     13       7.6921      2.00000
     14       7.8477      2.00000
     15       8.2524      2.00000
     16       8.2937      2.00000
     17       9.5256      0.00000
     18       9.7757      0.00000
     19      10.1557      0.00000
     20      10.7770      0.00000
     21      11.4954      0.00000
     22      11.6649      0.00000
     23      12.0092      0.00000
     24      13.3041      0.00000

 k-point   645 :       0.5000   -0.0833    0.4444
  band No.  band energies     occupation 
      1      -2.0596      2.00000
      2      -1.5248      2.00000
      3      -1.3520      2.00000
      4      -0.8187      2.00000
      5       0.6432      2.00000
      6       1.1550      2.00000
      7       2.4430      2.00000
      8       2.9445      2.00000
      9       6.9256      2.00000
     10       7.3609      2.00000
     11       7.4400      2.00000
     12       7.6993      2.00000
     13       8.0880      2.00000
     14       8.1195      2.00000
     15       8.5567      2.00000
     16       8.5645      2.00000
     17       9.4029      0.00000
     18       9.4530      0.00000
     19       9.7538      0.00000
     20      10.2697      0.00000
     21      11.9750      0.00000
     22      12.3172      0.00000
     23      12.5075      0.00000
     24      12.5892      0.00000

 k-point   646 :      -0.4167   -0.0833    0.4444
  band No.  band energies     occupation 
      1      -1.9899      2.00000
      2      -1.4919      2.00000
      3      -1.3949      2.00000
      4      -0.8998      2.00000
      5       0.7140      2.00000
      6       1.2236      2.00000
      7       2.3604      2.00000
      8       2.8544      2.00000
      9       6.5045      2.00000
     10       6.7178      2.00000
     11       7.4320      2.00000
     12       7.4348      2.00000
     13       8.4871      2.00000
     14       8.5494      2.00000
     15       9.1786      0.11638
     16       9.3573      0.00000
     17       9.4469      0.00000
     18       9.5076      0.00000
     19       9.9953      0.00000
     20      10.0339      0.00000
     21      11.4649      0.00000
     22      12.0962      0.00000
     23      12.1506      0.00000
     24      12.8470      0.00000

 k-point   647 :      -0.3333   -0.0833    0.4444
  band No.  band energies     occupation 
      1      -2.5115      2.00000
      2      -1.9627      2.00000
      3      -0.7388      2.00000
      4      -0.1973      2.00000
      5       0.8835      2.00000
      6       1.3884      2.00000
      7       2.3693      2.00000
      8       2.8518      2.00000
      9       5.5807      2.00000
     10       5.9585      2.00000
     11       6.8604      2.00000
     12       7.7882      2.00000
     13       8.4007      2.00000
     14       8.5707      2.00000
     15       8.7173      2.00000
     16       8.8513      2.00000
     17      10.2281      0.00000
     18      10.3743      0.00000
     19      10.6434      0.00000
     20      10.8199      0.00000
     21      11.0276      0.00000
     22      11.7658      0.00000
     23      12.0469      0.00000
     24      12.1943      0.00000

 k-point   648 :      -0.2500   -0.0833    0.4444
  band No.  band energies     occupation 
      1      -2.9329      2.00000
      2      -2.3823      2.00000
      3       0.0562      2.00000
      4       0.5944      2.00000
      5       1.1507      2.00000
      6       1.6475      2.00000
      7       2.4611      2.00000
      8       2.9257      2.00000
      9       4.7315      2.00000
     10       5.1862      2.00000
     11       6.4307      2.00000
     12       7.6499      2.00000
     13       7.7049      2.00000
     14       8.0019      2.00000
     15       8.3247      2.00000
     16       8.3577      2.00000
     17      10.4035      0.00000
     18      10.7538      0.00000
     19      10.8810      0.00000
     20      11.3544      0.00000
     21      11.4124      0.00000
     22      11.9088      0.00000
     23      12.2733      0.00000
     24      12.6153      0.00000

 k-point   649 :      -0.1667   -0.0833    0.4444
  band No.  band energies     occupation 
      1      -3.2520      2.00000
      2      -2.7003      2.00000
      3       0.9236      2.00000
      4       1.4533      2.00000
      5       1.5172      2.00000
      6       2.0020      2.00000
      7       2.5982      2.00000
      8       3.0355      2.00000
      9       4.0265      2.00000
     10       4.5188      2.00000
     11       6.1222      2.00000
     12       6.7497      2.00000
     13       7.1399      2.00000
     14       7.2772      2.00000
     15       7.5366      2.00000
     16       7.6349      2.00000
     17      10.5653      0.00000
     18      11.0113      0.00000
     19      11.0730      0.00000
     20      11.9041      0.00000
     21      12.1460      0.00000
     22      12.1756      0.00000
     23      12.9394      0.00000
     24      13.5450      0.00000

 k-point   650 :      -0.0833   -0.0833    0.4444
  band No.  band energies     occupation 
      1      -3.4675      2.00000
      2      -2.9152      2.00000
      3       1.7565      2.00000
      4       2.0440      2.00000
      5       2.2061      2.00000
      6       2.5344      2.00000
      7       2.6508      2.00000
      8       3.0333      2.00000
      9       3.6637      2.00000
     10       4.1457      2.00000
     11       5.8502      2.00000
     12       5.9237      2.00000
     13       6.1741      2.00000
     14       6.2980      2.00000
     15       6.6133      2.00000
     16       7.3763      2.00000
     17      11.1362      0.00000
     18      11.2132      0.00000
     19      11.3359      0.00000
     20      12.1664      0.00000
     21      12.5163      0.00000
     22      12.6084      0.00000
     23      13.1769      0.00000
     24      13.9237      0.00000


--------------------------------------------------------------------------------------------------------


 soft charge-density along one line, spin component           1
         0         1         2         3         4         5         6         7         8         9
 total charge-density along one line
 
 pseudopotential strength for first ion, spin component:           1
 18.063  25.200   0.000  -0.000   0.000   0.000  -0.000   0.000
 25.200  35.160   0.000  -0.000   0.000   0.000  -0.000   0.000
  0.000   0.000   4.117  -0.000   0.000   7.670  -0.000   0.000
 -0.000  -0.000  -0.000   4.117   0.000  -0.000   7.669   0.000
  0.000   0.000   0.000   0.000   4.116   0.000   0.000   7.668
  0.000   0.000   7.670  -0.000   0.000  14.300  -0.000   0.000
 -0.000  -0.000  -0.000   7.669   0.000  -0.000  14.299   0.000
  0.000   0.000   0.000   0.000   7.668   0.000   0.000  14.296
 total augmentation occupancy for first ion, spin component:           1
  5.307  -2.101  -0.000   0.020  -0.001   0.000  -0.002   0.000
 -2.101   1.113   0.000  -0.013   0.000  -0.000  -0.001  -0.000
 -0.000   0.000   2.433   0.000  -0.000  -0.563  -0.000   0.000
  0.020  -0.013   0.000   2.682  -0.000  -0.000  -0.627   0.000
 -0.001   0.000  -0.000  -0.000   2.809   0.000   0.000  -0.642
  0.000  -0.000  -0.563  -0.000   0.000   0.142   0.000  -0.000
 -0.002  -0.001  -0.000  -0.627   0.000   0.000   0.159  -0.000
  0.000  -0.000   0.000   0.000  -0.642  -0.000  -0.000   0.160


------------------------ aborting loop because EDIFF is reached ----------------------------------------


 


 total charge     
 
# of ion     s       p       d       tot
----------------------------------------
  1        0.792   0.822   0.000   1.613
  2        0.792   0.822   0.000   1.613
  3        0.792   0.822   0.000   1.613
  4        0.792   0.822   0.000   1.613
  5        0.792   0.794   0.000   1.586
  6        0.792   0.794   0.000   1.586
  7        0.792   0.794   0.000   1.586
  8        0.792   0.794   0.000   1.586
------------------------------------------------
tot        6.333   6.464   0.000  12.798
 
    CHARGE:  cpu time    0.3310: real time    0.3319
    FORLOC:  cpu time    0.0010: real time    0.0009
    FORNL :  cpu time    2.4226: real time    2.4276
    STRESS:  cpu time    6.4390: real time    6.4513
    FORCOR:  cpu time    0.0180: real time    0.0179
    FORHAR:  cpu time    0.0060: real time    0.0055
    MIXING:  cpu time    0.0000: real time    0.0007
    OFIELD:  cpu time    0.0010: real time    0.0006

  FORCE on cell =-STRESS in cart. coord.  units (eV):
  Direction    XX          YY          ZZ          XY          YZ          ZX
  --------------------------------------------------------------------------------------
  Alpha Z    17.58341    17.58341    17.58341
  Ewald    -354.34287  -356.59475  -349.48733    -0.00000    -0.00000     0.00000
  Hartree     2.37569     3.41593     4.28811    -0.00000     0.00000     0.00000
  E(xc)    -101.96733  -101.25763  -101.37068    -0.00000    -0.00000    -0.00000
  Local     -59.03919   -45.12107   -54.47348     0.00000    -0.00000    -0.00000
  n-local   314.57828   301.69480   304.02799     0.00000    -0.00000     0.00000
  augment   -48.96364   -47.76334   -47.95063     0.00000     0.00000     0.00000
  Kinetic   230.06293   228.07785   227.34362    -0.00000    -0.00000     0.00000
  Fock        0.00000     0.00000     0.00000     0.00000     0.00000     0.00000
  -------------------------------------------------------------------------------------
  Total       0.28727     0.03520    -0.03900     0.00000    -0.00001     0.00000
  in kB       3.75641     0.46026    -0.51000     0.00003    -0.00007     0.00003
  external pressure =        1.24 kB  Pullay stress =        0.00 kB


 VOLUME and BASIS-vectors are now :
 -----------------------------------------------------------------------------
  energy-cutoff  :      520.00
  volume of cell :      122.53
      direct lattice vectors                 reciprocal lattice vectors
     2.455883162 -4.653239982 -0.000000005     0.203592748 -0.107452012  0.000000000
     2.455883161  4.653239994  0.000000010     0.203592747  0.107452012 -0.000000000
    -0.000000001  0.000000016  5.360907350    -0.000000000 -0.000000000  0.186535587

  length of vectors
     5.261559126  5.261559136  5.360907350     0.230208475  0.230208474  0.186535587


 FORCES acting on ions
    electron-ion (+dipol)            ewald-force                    non-local-force                 convergence-correction
 -----------------------------------------------------------------------------------------------
   -.510E-02 0.865E-04 -.648E+00   0.550E-02 0.689E-06 0.787E+00   -.114E-02 -.329E-04 -.657E-01   -.163E-05 -.482E-04 -.492E-01
   0.514E-02 0.529E-04 0.648E+00   -.550E-02 0.546E-06 -.787E+00   0.113E-02 -.159E-04 0.657E-01   -.249E-04 -.364E-04 0.492E-01
   0.511E-02 0.205E-04 -.648E+00   -.550E-02 0.720E-06 0.787E+00   0.114E-02 -.235E-05 -.657E-01   -.707E-05 -.164E-04 -.492E-01
   -.517E-02 0.544E-04 0.648E+00   0.550E-02 0.575E-06 -.787E+00   -.112E-02 -.287E-04 0.657E-01   0.386E-04 -.253E-04 0.492E-01
   0.323E-04 0.399E+01 -.181E-04   -.926E-06 -.329E+01 0.438E-06   -.153E-04 -.727E+00 0.173E-04   -.134E-04 0.250E-01 -.255E-05
   0.368E-06 0.399E+01 -.220E-04   0.351E-06 -.329E+01 -.977E-06   0.272E-05 -.727E+00 0.921E-05   -.172E-05 0.250E-01 0.104E-04
   -.319E-04 -.399E+01 0.175E-04   0.834E-06 0.329E+01 0.913E-06   0.203E-04 0.727E+00 -.251E-05   0.956E-05 -.249E-01 -.118E-04
   -.235E-04 -.399E+01 -.879E-05   -.305E-06 0.329E+01 -.441E-06   0.152E-04 0.727E+00 0.204E-05   0.794E-05 -.249E-01 0.806E-05
 -----------------------------------------------------------------------------------------------
   -.345E-04 0.853E-05 -.445E-04   0.379E-16 0.533E-14 -.346E-14   0.312E-04 -.343E-06 0.397E-04   0.739E-05 -.758E-05 0.488E-05
 
 
 POSITION                                       TOTAL-FORCE (eV/Angst)
 -----------------------------------------------------------------------------------
      2.45639      0.00000      4.13621        -0.000749      0.000006      0.023227
      2.45538      0.00000      1.22469         0.000750      0.000001     -0.023227
      4.91126      0.00000      1.45576         0.000750      0.000002      0.023233
      0.00050      0.00000      3.90515        -0.000752      0.000001     -0.023231
      2.45588     -2.08024      2.68045         0.000002     -0.006090     -0.000003
      2.45588      2.57300      0.00000         0.000001     -0.006085     -0.000003
      2.45588      2.08024      2.68045        -0.000002      0.006081      0.000004
      2.45588     -2.57300      0.00000        -0.000001      0.006084      0.000001
 -----------------------------------------------------------------------------------
    total drift:                                0.000004      0.000001      0.000000


--------------------------------------------------------------------------------------------------------



  FREE ENERGIE OF THE ION-ELECTRON SYSTEM (eV)
  ---------------------------------------------------
  free  energy   TOTEN  =       -41.01167598 eV

  energy  without entropy=      -41.00914285  energy(sigma->0) =      -41.01040942
 


--------------------------------------------------------------------------------------------------------


    POTLOK:  cpu time    0.0480: real time    0.0488


--------------------------------------------------------------------------------------------------------


     LOOP+:  cpu time  143.6322: real time  144.1431
    4ORBIT:  cpu time    0.0000: real time    0.0001
 


 total charge     
 
# of ion     s       p       d       tot
----------------------------------------
  1        0.792   0.822   0.000   1.613
  2        0.792   0.822   0.000   1.613
  3        0.792   0.822   0.000   1.613
  4        0.792   0.822   0.000   1.613
  5        0.792   0.794   0.000   1.586
  6        0.792   0.794   0.000   1.586
  7        0.792   0.794   0.000   1.586
  8        0.792   0.794   0.000   1.586
------------------------------------------------
tot        6.333   6.464   0.000  12.798
 

 total amount of memory used by VASP on root node    52382. kBytes
========================================================================

   base      :      30000. kBytes
   nonlr-proj:        931. kBytes
   fftplans  :       2148. kBytes
   grid      :       1077. kBytes
   one-center:          6. kBytes
   wavefun   :      18220. kBytes
 
  
  
 General timing and accounting informations for this job:
 ========================================================
  
                  Total CPU time used (sec):      173.934
                            User time (sec):      155.364
                          System time (sec):       18.569
                         Elapsed time (sec):      175.753
  
                   Maximum memory used (kb):      248948.
                   Average memory used (kb):           0.
  
                          Minor page faults:        67410
                          Major page faults:            1
                 Voluntary context switches:         2118
