   13   13    1    2
  0.1919617E+02  0.7066825E-09  0.7066825E-09  0.7066825E-09  0.5000000E-16
  1.000000000000000E-004
  CAR 
 unknown system                          
    105     35     72
 
  0.3742002E-15  0.3742002E-15  0.3742002E-15  0.1371742E-02
    1      -29.399190    -29.399975   1.000000   1.000000
    2      -29.120522    -29.121346   1.000000   1.000000
    3      -29.120522    -29.121346   1.000000   1.000000
    4      -29.120522    -29.121346   1.000000   1.000000
    5      -29.000504    -29.001346   1.000000   1.000000
    6      -29.000504    -29.001346   1.000000   1.000000
    7      -28.811506    -28.812333   1.000000   1.000000
    8      -28.811506    -28.812333   1.000000   1.000000
    9      -28.811506    -28.812333   1.000000   1.000000
   10      -28.796681    -28.797442   1.000000   1.000000
   11      -28.796681    -28.797442   1.000000   1.000000
   12      -28.796681    -28.797442   1.000000   1.000000
   13      -11.686767    -11.686864   1.000000   1.000000
   14      -11.686767    -11.686864   1.000000   1.000000
   15      -11.686767    -11.686864   1.000000   1.000000
   16      -11.477584    -11.477683   1.000000   1.000000
   17      -11.477584    -11.477683   1.000000   1.000000
   18       -9.540921     -9.539775   1.000000   1.000000
   19       -7.739055     -7.738426   1.000000   1.000000
   20       -7.421575     -7.420888   1.000000   1.000000
   21       -7.421575     -7.420888   1.000000   1.000000
   22       -7.421575     -7.420888   1.000000   1.000000
   23       -7.182553     -7.182063   1.000000   1.000000
   24       -7.182553     -7.182063   1.000000   1.000000
   25       -7.182553     -7.182063   1.000000   1.000000
   26       -2.855641     -2.854128   1.000000   1.000000
   27       -1.035389     -1.033749   1.000000   1.000000
   28       -1.035388     -1.033749   1.000000   1.000000
   29       -1.035388     -1.033749   1.000000   1.000000
   30       -0.404941     -0.404531   1.000000   1.000000
   31        0.598733      0.600946   1.000000   1.000000
   32        0.598733      0.600946   1.000000   1.000000
   33        2.455572      2.456049   1.000000   1.000000
   34        2.455573      2.456051   1.000000   1.000000
   35        2.455573      2.456051   1.000000   1.000000
   36        2.682214      2.682262   1.000000   1.000000
   37        2.682214      2.682262   1.000000   1.000000
   38        2.682214      2.682262   1.000000   1.000000
   39        2.955781      2.955607   1.000000   1.000000
   40        2.955781      2.955607   1.000000   1.000000
   41        3.069665      3.069602   1.000000   1.000000
   42        3.069665      3.069602   1.000000   1.000000
   43        3.069665      3.069602   1.000000   1.000000
   44        3.407866      3.407138   1.000000   1.000000
   45        3.643216      3.644193   1.000000   1.000000
   46        3.643217      3.644193   1.000000   1.000000
   47        3.643217      3.644193   1.000000   1.000000
   48        4.863881      4.863553   1.000000   1.000000
   49        4.863881      4.863553   1.000000   1.000000
   50        5.032000      5.032399   1.000000   1.000000
   51        5.032000      5.032399   1.000000   1.000000
   52        5.032000      5.032399   1.000000   1.000000
   53        6.394064      6.392799   0.095391   0.101600
   54        6.394064      6.392799   0.095389   0.101598
   55        6.394064      6.392799   0.095389   0.101598
   56        7.128632      7.130838   0.000000   0.000000
   57        8.684028      8.685428   0.000000   0.000000
   58        8.684028      8.685429   0.000000   0.000000
   59        8.684028      8.685429   0.000000   0.000000
   60        8.951404      8.952377   0.000000   0.000000
   61        8.951404      8.952377   0.000000   0.000000
   62        8.951404      8.952377   0.000000   0.000000
   63        9.413151      9.411695   0.000000   0.000000
   64        9.413152      9.411695   0.000000   0.000000
   65        9.413152      9.411695   0.000000   0.000000
   66        9.851224      9.850677   0.000000   0.000000
   67        9.851224      9.850677   0.000000   0.000000
   68        9.858436      9.860699   0.000000   0.000000
   69        9.858436      9.860699   0.000000   0.000000
   70        9.858436      9.860699   0.000000   0.000000
   71       10.135758     10.138195   0.000000   0.000000
   72       11.248905     11.248152   0.000000   0.000000
 
  0.1111111E+00  0.3816392E-15  0.3816392E-15  0.1097394E-01
    1      -29.397704    -29.398490   1.000000   1.000000
    2      -29.120196    -29.121020   1.000000   1.000000
    3      -29.119796    -29.120620   1.000000   1.000000
    4      -29.119796    -29.120620   1.000000   1.000000
    5      -29.000341    -29.001183   1.000000   1.000000
    6      -29.000341    -29.001183   1.000000   1.000000
    7      -28.812185    -28.813012   1.000000   1.000000
    8      -28.812185    -28.813012   1.000000   1.000000
    9      -28.811510    -28.812337   1.000000   1.000000
   10      -28.798772    -28.799534   1.000000   1.000000
   11      -28.796978    -28.797740   1.000000   1.000000
   12      -28.796978    -28.797740   1.000000   1.000000
   13      -11.687324    -11.687420   1.000000   1.000000
   14      -11.686728    -11.686825   1.000000   1.000000
   15      -11.686728    -11.686825   1.000000   1.000000
   16      -11.477588    -11.477688   1.000000   1.000000
   17      -11.477588    -11.477688   1.000000   1.000000
   18       -9.494219     -9.493076   1.000000   1.000000
   19       -7.770866     -7.770245   1.000000   1.000000
   20       -7.473021     -7.472252   1.000000   1.000000
   21       -7.424137     -7.423442   1.000000   1.000000
   22       -7.424137     -7.423442   1.000000   1.000000
   23       -7.199351     -7.198904   1.000000   1.000000
   24       -7.182147     -7.181659   1.000000   1.000000
   25       -7.182147     -7.181659   1.000000   1.000000
   26       -2.755736     -2.754238   1.000000   1.000000
   27       -0.968823     -0.967198   1.000000   1.000000
   28       -0.968823     -0.967198   1.000000   1.000000
   29       -0.910531     -0.908943   1.000000   1.000000
   30       -0.394537     -0.394159   1.000000   1.000000
   31        0.595618      0.597755   1.000000   1.000000
   32        0.595618      0.597755   1.000000   1.000000
   33        2.144565      2.145262   1.000000   1.000000
   34        2.368240      2.368827   1.000000   1.000000
   35        2.368240      2.368828   1.000000   1.000000
   36        2.624488      2.624487   1.000000   1.000000
   37        2.624488      2.624487   1.000000   1.000000
   38        2.635653      2.635534   1.000000   1.000000
   39        2.920828      2.920791   1.000000   1.000000
   40        2.920828      2.920791   1.000000   1.000000
   41        2.997107      2.997164   1.000000   1.000000
   42        3.160684      3.160732   1.000000   1.000000
   43        3.160684      3.160732   1.000000   1.000000
   44        3.517528      3.518442   1.000000   1.000000
   45        3.517528      3.518442   1.000000   1.000000
   46        3.530716      3.530137   1.000000   1.000000
   47        3.733413      3.734267   1.000000   1.000000
   48        4.770576      4.770970   1.000000   1.000000
   49        4.889266      4.889212   1.000000   1.000000
   50        4.889267      4.889212   1.000000   1.000000
   51        5.074225      5.074214   1.000000   1.000000
   52        5.074225      5.074214   1.000000   1.000000
   53        6.444969      6.443640   0.002997   0.003359
   54        6.444970      6.443640   0.002997   0.003359
   55        6.446663      6.445397   0.002587   0.002888
   56        7.199070      7.201115   0.000000   0.000000
   57        8.616003      8.617347   0.000000   0.000000
   58        8.645855      8.646996   0.000000   0.000000
   59        8.645856      8.646996   0.000000   0.000000
   60        9.057753      9.057945   0.000000   0.000000
   61        9.057753      9.057945   0.000000   0.000000
   62        9.197443      9.198896   0.000000   0.000000
   63        9.245555      9.246097   0.000000   0.000000
   64        9.245555      9.246097   0.000000   0.000000
   65        9.428729      9.427281   0.000000   0.000000
   66        9.651759      9.651790   0.000000   0.000000
   67        9.651759      9.651790   0.000000   0.000000
   68        9.813001      9.814818   0.000000   0.000000
   69       10.367838     10.368265   0.000000   0.000000
   70       10.367838     10.368265   0.000000   0.000000
   71       10.421565     10.423901   0.000000   0.000000
   72       11.164533     11.155004   0.000000   0.000000
 
  0.2222222E+00  0.4024558E-15  0.4024558E-15  0.1097394E-01
    1      -29.393892    -29.394680   1.000000   1.000000
    2      -29.119317    -29.120141   1.000000   1.000000
    3      -29.117935    -29.118759   1.000000   1.000000
    4      -29.117935    -29.118759   1.000000   1.000000
    5      -28.999885    -29.000728   1.000000   1.000000
    6      -28.999885    -29.000728   1.000000   1.000000
    7      -28.814017    -28.814843   1.000000   1.000000
    8      -28.814017    -28.814843   1.000000   1.000000
    9      -28.811509    -28.812337   1.000000   1.000000
   10      -28.804098    -28.804858   1.000000   1.000000
   11      -28.797603    -28.798365   1.000000   1.000000
   12      -28.797602    -28.798365   1.000000   1.000000
   13      -11.688711    -11.688806   1.000000   1.000000
   14      -11.686636    -11.686733   1.000000   1.000000
   15      -11.686636    -11.686733   1.000000   1.000000
   16      -11.477601    -11.477700   1.000000   1.000000
   17      -11.477601    -11.477700   1.000000   1.000000
   18       -9.357118     -9.355983   1.000000   1.000000
   19       -7.872949     -7.872261   1.000000   1.000000
   20       -7.643238     -7.642481   1.000000   1.000000
   21       -7.430588     -7.429877   1.000000   1.000000
   22       -7.430588     -7.429877   1.000000   1.000000
   23       -7.190554     -7.190088   1.000000   1.000000
   24       -7.181091     -7.180610   1.000000   1.000000
   25       -7.181091     -7.180610   1.000000   1.000000
   26       -2.489010     -2.487547   1.000000   1.000000
   27       -0.776687     -0.775106   1.000000   1.000000
   28       -0.776687     -0.775106   1.000000   1.000000
   29       -0.592006     -0.590801   1.000000   1.000000
   30       -0.329372     -0.328830   1.000000   1.000000
   31        0.583035      0.584983   1.000000   1.000000
   32        0.583035      0.584983   1.000000   1.000000
   33        1.526368      1.527248   1.000000   1.000000
   34        2.049212      2.049942   1.000000   1.000000
   35        2.049213      2.049943   1.000000   1.000000
   36        2.521477      2.521457   1.000000   1.000000
   37        2.608148      2.608448   1.000000   1.000000
   38        2.608148      2.608449   1.000000   1.000000
   39        2.829983      2.830108   1.000000   1.000000
   40        2.829983      2.830108   1.000000   1.000000
   41        2.865517      2.865702   1.000000   1.000000
   42        3.133517      3.134027   1.000000   1.000000
   43        3.133517      3.134027   1.000000   1.000000
   44        3.538248      3.538348   1.000000   1.000000
   45        3.539780      3.540206   1.000000   1.000000
   46        3.539780      3.540206   1.000000   1.000000
   47        3.910486      3.911207   1.000000   1.000000
   48        4.305755      4.305683   1.000000   1.000000
   49        4.769656      4.769823   1.000000   1.000000
   50        4.769656      4.769823   1.000000   1.000000
   51        5.249812      5.249286   1.000000   1.000000
   52        5.249812      5.249286   1.000000   1.000000
   53        6.502283      6.501012   0.000006   0.000007
   54        6.541154      6.539694   0.000000   0.000000
   55        6.541155      6.539694   0.000000   0.000000
   56        7.289860      7.291627   0.000000   0.000000
   57        8.558847      8.559798   0.000000   0.000000
   58        8.558848      8.559798   0.000000   0.000000
   59        8.695261      8.696505   0.000000   0.000000
   60        8.949198      8.948991   0.000000   0.000000
   61        8.949198      8.948991   0.000000   0.000000
   62        9.340996      9.341086   0.000000   0.000000
   63        9.340996      9.341086   0.000000   0.000000
   64        9.476465      9.475041   0.000000   0.000000
   65        9.634531      9.636827   0.000000   0.000000
   66        9.872239      9.873429   0.000000   0.000000
   67        9.892275      9.893214   0.000000   0.000000
   68        9.892275      9.893214   0.000000   0.000000
   69       10.571982     10.571570   0.000000   0.000000
   70       10.571982     10.571571   0.000000   0.000000
   71       10.870799     10.870292   0.000000   0.000000
   72       11.003653     11.005572   0.000000   0.000000
 
  0.3333333E+00  0.3330669E-15  0.3330669E-15  0.1097394E-01
    1      -29.389510    -29.390298   1.000000   1.000000
    2      -29.118251    -29.119074   1.000000   1.000000
    3      -29.115796    -29.116621   1.000000   1.000000
    4      -29.115796    -29.116621   1.000000   1.000000
    5      -28.999342    -29.000184   1.000000   1.000000
    6      -28.999342    -29.000184   1.000000   1.000000
    7      -28.816304    -28.817129   1.000000   1.000000
    8      -28.816304    -28.817129   1.000000   1.000000
    9      -28.811505    -28.812333   1.000000   1.000000
   10      -28.810277    -28.811036   1.000000   1.000000
   11      -28.798153    -28.798916   1.000000   1.000000
   12      -28.798153    -28.798916   1.000000   1.000000
   13      -11.690247    -11.690340   1.000000   1.000000
   14      -11.686530    -11.686627   1.000000   1.000000
   15      -11.686530    -11.686627   1.000000   1.000000
   16      -11.477616    -11.477715   1.000000   1.000000
   17      -11.477616    -11.477715   1.000000   1.000000
   18       -9.140063     -9.138936   1.000000   1.000000
   19       -8.117874     -8.116997   1.000000   1.000000
   20       -7.776373     -7.775784   1.000000   1.000000
   21       -7.437898     -7.437169   1.000000   1.000000
   22       -7.437898     -7.437169   1.000000   1.000000
   23       -7.179847     -7.179372   1.000000   1.000000
   24       -7.179847     -7.179372   1.000000   1.000000
   25       -7.160907     -7.160386   1.000000   1.000000
   26       -2.135937     -2.134514   1.000000   1.000000
   27       -0.487062     -0.485567   1.000000   1.000000
   28       -0.487062     -0.485566   1.000000   1.000000
   29       -0.447798     -0.447521   1.000000   1.000000
   30        0.069219      0.070397   1.000000   1.000000
   31        0.541080      0.542844   1.000000   1.000000
   32        0.541080      0.542844   1.000000   1.000000
   33        0.935465      0.936467   1.000000   1.000000
   34        1.645105      1.646068   1.000000   1.000000
   35        1.645106      1.646069   1.000000   1.000000
   36        2.340002      2.340185   1.000000   1.000000
   37        2.469715      2.470394   1.000000   1.000000
   38        2.469715      2.470394   1.000000   1.000000
   39        2.755946      2.756197   1.000000   1.000000
   40        2.787030      2.787132   1.000000   1.000000
   41        2.787030      2.787132   1.000000   1.000000
   42        2.978980      2.979939   1.000000   1.000000
   43        3.146062      3.146687   1.000000   1.000000
   44        3.146062      3.146687   1.000000   1.000000
   45        3.724549      3.724863   1.000000   1.000000
   46        3.724549      3.724863   1.000000   1.000000
   47        4.073352      4.074002   1.000000   1.000000
   48        4.277398      4.276655   1.000000   1.000000
   49        4.564630      4.564884   1.000000   1.000000
   50        4.564630      4.564884   1.000000   1.000000
   51        5.389667      5.388770   1.000000   1.000000
   52        5.389667      5.388770   1.000000   1.000000
   53        6.469480      6.468322   0.000289   0.000326
   54        6.606319      6.604775   0.000000   0.000000
   55        6.606319      6.604776   0.000000   0.000000
   56        7.289267      7.290912   0.000000   0.000000
   57        8.483650      8.484674   0.000000   0.000000
   58        8.483650      8.484675   0.000000   0.000000
   59        8.842792      8.843752   0.000000   0.000000
   60        8.976484      8.976274   0.000000   0.000000
   61        8.976484      8.976274   0.000000   0.000000
   62        9.369675      9.369009   0.000000   0.000000
   63        9.369675      9.369009   0.000000   0.000000
   64        9.554809      9.553398   0.000000   0.000000
   65        9.898320      9.899841   0.000000   0.000000
   66       10.124097     10.123875   0.000000   0.000000
   67       10.124097     10.123875   0.000000   0.000000
   68       10.489157     10.491093   0.000000   0.000000
   69       10.567331     10.566831   0.000000   0.000000
   70       10.683114     10.684164   0.000000   0.000000
   71       10.683115     10.684164   0.000000   0.000000
   72       11.384205     11.370410   0.000000   0.000000
 
  0.4444444E+00  0.3608225E-15  0.3608225E-15  0.1097394E-01
    1      -29.386618    -29.387408   1.000000   1.000000
    2      -29.117508    -29.118331   1.000000   1.000000
    3      -29.114388    -29.115213   1.000000   1.000000
    4      -29.114388    -29.115213   1.000000   1.000000
    5      -28.998965    -28.999808   1.000000   1.000000
    6      -28.998965    -28.999808   1.000000   1.000000
    7      -28.817892    -28.818716   1.000000   1.000000
    8      -28.817892    -28.818715   1.000000   1.000000
    9      -28.814381    -28.815139   1.000000   1.000000
   10      -28.811499    -28.812327   1.000000   1.000000
   11      -28.798456    -28.799221   1.000000   1.000000
   12      -28.798456    -28.799220   1.000000   1.000000
   13      -11.691223    -11.691315   1.000000   1.000000
   14      -11.686461    -11.686558   1.000000   1.000000
   15      -11.686461    -11.686558   1.000000   1.000000
   16      -11.477623    -11.477723   1.000000   1.000000
   17      -11.477623    -11.477723   1.000000   1.000000
   18       -8.876850     -8.875704   1.000000   1.000000
   19       -8.433478     -8.432562   1.000000   1.000000
   20       -7.824020     -7.823482   1.000000   1.000000
   21       -7.442653     -7.441913   1.000000   1.000000
   22       -7.442653     -7.441913   1.000000   1.000000
   23       -7.179014     -7.178542   1.000000   1.000000
   24       -7.179014     -7.178542   1.000000   1.000000
   25       -7.140854     -7.140300   1.000000   1.000000
   26       -1.839926     -1.838538   1.000000   1.000000
   27       -0.450959     -0.450784   1.000000   1.000000
   28       -0.188450     -0.187110   1.000000   1.000000
   29       -0.188450     -0.187110   1.000000   1.000000
   30        0.284482      0.285498   1.000000   1.000000
   31        0.434919      0.436678   1.000000   1.000000
   32        0.434919      0.436678   1.000000   1.000000
   33        0.967164      0.968141   1.000000   1.000000
   34        1.354222      1.355297   1.000000   1.000000
   35        1.354222      1.355298   1.000000   1.000000
   36        1.869009      1.869849   1.000000   1.000000
   37        2.344288      2.345096   1.000000   1.000000
   38        2.344288      2.345096   1.000000   1.000000
   39        2.569226      2.570070   1.000000   1.000000
   40        2.696523      2.696799   1.000000   1.000000
   41        2.787712      2.787875   1.000000   1.000000
   42        2.787712      2.787875   1.000000   1.000000
   43        3.198714      3.199405   1.000000   1.000000
   44        3.198715      3.199406   1.000000   1.000000
   45        3.921292      3.921548   1.000000   1.000000
   46        3.921293      3.921548   1.000000   1.000000
   47        4.168556      4.169174   1.000000   1.000000
   48        4.340994      4.341350   1.000000   1.000000
   49        4.340994      4.341350   1.000000   1.000000
   50        4.382066      4.381165   1.000000   1.000000
   51        5.456644      5.455497   1.000000   1.000000
   52        5.456644      5.455497   1.000000   1.000000
   53        6.404671      6.403660   0.053885   0.057089
   54        6.633296      6.631729   0.000000   0.000000
   55        6.633296      6.631729   0.000000   0.000000
   56        7.251014      7.252637   0.000000   0.000000
   57        8.461082      8.462287   0.000000   0.000000
   58        8.461082      8.462287   0.000000   0.000000
   59        8.938091      8.938800   0.000000   0.000000
   60        9.119227      9.118914   0.000000   0.000000
   61        9.119227      9.118914   0.000000   0.000000
   62        9.358889      9.357923   0.000000   0.000000
   63        9.358889      9.357923   0.000000   0.000000
   64        9.636146      9.634703   0.000000   0.000000
   65        9.879497      9.879015   0.000000   0.000000
   66        9.879497      9.879015   0.000000   0.000000
   67       10.163524     10.164622   0.000000   0.000000
   68       10.349510     10.349094   0.000000   0.000000
   69       10.865105     10.866899   0.000000   0.000000
   70       11.088718     11.089514   0.000000   0.000000
   71       11.088721     11.089520   0.000000   0.000000
   72       11.548651     11.547279   0.000000   0.000000
 
  0.1111111E+00  0.1111111E+00  0.3778052E-15  0.8230453E-02
    1      -29.397200    -29.397986   1.000000   1.000000
    2      -29.120565    -29.121389   1.000000   1.000000
    3      -29.119311    -29.120135   1.000000   1.000000
    4      -29.119311    -29.120135   1.000000   1.000000
    5      -29.000656    -29.001498   1.000000   1.000000
    6      -28.999908    -29.000751   1.000000   1.000000
    7      -28.812125    -28.812953   1.000000   1.000000
    8      -28.812111    -28.812938   1.000000   1.000000
    9      -28.812111    -28.812938   1.000000   1.000000
   10      -28.798804    -28.799565   1.000000   1.000000
   11      -28.797391    -28.798152   1.000000   1.000000
   12      -28.797390    -28.798152   1.000000   1.000000
   13      -11.687520    -11.687616   1.000000   1.000000
   14      -11.686703    -11.686800   1.000000   1.000000
   15      -11.686703    -11.686800   1.000000   1.000000
   16      -11.477608    -11.477707   1.000000   1.000000
   17      -11.477572    -11.477671   1.000000   1.000000
   18       -9.478852     -9.477710   1.000000   1.000000
   19       -7.779165     -7.778553   1.000000   1.000000
   20       -7.478585     -7.477803   1.000000   1.000000
   21       -7.426286     -7.425570   1.000000   1.000000
   22       -7.426285     -7.425570   1.000000   1.000000
   23       -7.212535     -7.212081   1.000000   1.000000
   24       -7.184076     -7.183608   1.000000   1.000000
   25       -7.184076     -7.183608   1.000000   1.000000
   26       -2.722095     -2.720603   1.000000   1.000000
   27       -0.939295     -0.937699   1.000000   1.000000
   28       -0.911100     -0.909487   1.000000   1.000000
   29       -0.911099     -0.909487   1.000000   1.000000
   30       -0.395126     -0.394760   1.000000   1.000000
   31        0.571937      0.573985   1.000000   1.000000
   32        0.634686      0.636878   1.000000   1.000000
   33        2.114498      2.115329   1.000000   1.000000
   34        2.281107      2.281549   1.000000   1.000000
   35        2.281107      2.281550   1.000000   1.000000
   36        2.606037      2.606173   1.000000   1.000000
   37        2.606037      2.606173   1.000000   1.000000
   38        2.697847      2.697662   1.000000   1.000000
   39        2.869762      2.869782   1.000000   1.000000
   40        2.918644      2.918640   1.000000   1.000000
   41        3.105478      3.105572   1.000000   1.000000
   42        3.105478      3.105572   1.000000   1.000000
   43        3.186254      3.186104   1.000000   1.000000
   44        3.387822      3.388784   1.000000   1.000000
   45        3.563705      3.563207   1.000000   1.000000
   46        3.627001      3.627924   1.000000   1.000000
   47        3.627001      3.627924   1.000000   1.000000
   48        4.732431      4.732519   1.000000   1.000000
   49        4.904672      4.905019   1.000000   1.000000
   50        4.904672      4.905019   1.000000   1.000000
   51        5.020879      5.020777   1.000000   1.000000
   52        5.097980      5.097465   1.000000   1.000000
   53        6.338916      6.337654   0.599301   0.613034
   54        6.519258      6.517910   0.000001   0.000001
   55        6.519258      6.517910   0.000001   0.000001
   56        7.258045      7.260012   0.000000   0.000000
   57        8.568142      8.569345   0.000000   0.000000
   58        8.568142      8.569346   0.000000   0.000000
   59        8.776392      8.777592   0.000000   0.000000
   60        9.016117      9.017393   0.000000   0.000000
   61        9.148391      9.148114   0.000000   0.000000
   62        9.148391      9.148115   0.000000   0.000000
   63        9.230828      9.229659   0.000000   0.000000
   64        9.236159      9.237220   0.000000   0.000000
   65        9.422820      9.423704   0.000000   0.000000
   66        9.422820      9.423704   0.000000   0.000000
   67       10.050582     10.051575   0.000000   0.000000
   68       10.050583     10.051575   0.000000   0.000000
   69       10.065460     10.064730   0.000000   0.000000
   70       10.315770     10.316971   0.000000   0.000000
   71       10.695309     10.696854   0.000000   0.000000
   72       11.134204     11.137476   0.000000   0.000000
 
  0.2222222E+00  0.1111111E+00  0.3816392E-15  0.3292181E-01
    1      -29.394154    -29.394941   1.000000   1.000000
    2      -29.120141    -29.120964   1.000000   1.000000
    3      -29.117743    -29.118567   1.000000   1.000000
    4      -29.117631    -29.118456   1.000000   1.000000
    5      -29.000598    -29.001441   1.000000   1.000000
    6      -28.999267    -29.000110   1.000000   1.000000
    7      -28.813892    -28.814718   1.000000   1.000000
    8      -28.813345    -28.814171   1.000000   1.000000
    9      -28.812089    -28.812916   1.000000   1.000000
   10      -28.802653    -28.803415   1.000000   1.000000
   11      -28.798098    -28.798860   1.000000   1.000000
   12      -28.798003    -28.798764   1.000000   1.000000
   13      -11.688612    -11.688706   1.000000   1.000000
   14      -11.686627    -11.686724   1.000000   1.000000
   15      -11.686619    -11.686715   1.000000   1.000000
   16      -11.477636    -11.477736   1.000000   1.000000
   17      -11.477570    -11.477669   1.000000   1.000000
   18       -9.372468     -9.371333   1.000000   1.000000
   19       -7.843250     -7.842627   1.000000   1.000000
   20       -7.600876     -7.600023   1.000000   1.000000
   21       -7.448630     -7.447929   1.000000   1.000000
   22       -7.435023     -7.434281   1.000000   1.000000
   23       -7.230706     -7.230259   1.000000   1.000000
   24       -7.181753     -7.181303   1.000000   1.000000
   25       -7.168675     -7.168200   1.000000   1.000000
   26       -2.510714     -2.509254   1.000000   1.000000
   27       -0.811993     -0.810413   1.000000   1.000000
   28       -0.730024     -0.728451   1.000000   1.000000
   29       -0.650550     -0.649113   1.000000   1.000000
   30       -0.370141     -0.369760   1.000000   1.000000
   31        0.570242      0.572110   1.000000   1.000000
   32        0.659099      0.661189   1.000000   1.000000
   33        1.613585      1.614523   1.000000   1.000000
   34        2.016745      2.017358   1.000000   1.000000
   35        2.123741      2.124262   1.000000   1.000000
   36        2.476866      2.477045   1.000000   1.000000
   37        2.579004      2.579219   1.000000   1.000000
   38        2.681843      2.681901   1.000000   1.000000
   39        2.811305      2.811536   1.000000   1.000000
   40        2.841837      2.842044   1.000000   1.000000
   41        2.979979      2.980304   1.000000   1.000000
   42        3.129087      3.129627   1.000000   1.000000
   43        3.149410      3.149621   1.000000   1.000000
   44        3.365009      3.365114   1.000000   1.000000
   45        3.459700      3.460196   1.000000   1.000000
   46        3.726273      3.726562   1.000000   1.000000
   47        3.735203      3.736011   1.000000   1.000000
   48        4.398947      4.399044   1.000000   1.000000
   49        4.754830      4.755106   1.000000   1.000000
   50        4.758662      4.758820   1.000000   1.000000
   51        5.150981      5.150593   1.000000   1.000000
   52        5.305767      5.305063   1.000000   1.000000
   53        6.342820      6.341549   0.556117   0.570281
   54        6.606457      6.605044   0.000000   0.000000
   55        6.625347      6.623881   0.000000   0.000000
   56        7.406164      7.407822   0.000000   0.000000
   57        8.499914      8.501052   0.000000   0.000000
   58        8.567059      8.568275   0.000000   0.000000
   59        8.766408      8.766972   0.000000   0.000000
   60        8.985191      8.985728   0.000000   0.000000
   61        9.001468      9.000877   0.000000   0.000000
   62        9.119659      9.119850   0.000000   0.000000
   63        9.274851      9.273794   0.000000   0.000000
   64        9.437137      9.438746   0.000000   0.000000
   65        9.652582      9.653305   0.000000   0.000000
   66        9.736272      9.737777   0.000000   0.000000
   67       10.016457     10.016838   0.000000   0.000000
   68       10.130399     10.130946   0.000000   0.000000
   69       10.455550     10.455147   0.000000   0.000000
   70       10.596220     10.596362   0.000000   0.000000
   71       10.901343     10.901491   0.000000   0.000000
   72       10.998746     11.000015   0.000000   0.000000
 
  0.3333333E+00  0.1111111E+00  0.3885781E-15  0.3292181E-01
    1      -29.389936    -29.390724   1.000000   1.000000