 vasp.5.4.1 24Jun15 (build Nov 23 2015 09:58:10) complex                        
  
 executed on             LinuxIFC date 2020.05.21  19:08:34
 running on   72 total cores
 distrk:  each k-point on   72 cores,    1 groups
 distr:  one band on NCORES_PER_BAND=  12 cores,    6 groups


--------------------------------------------------------------------------------------------------------


 INCAR:
 POTCAR:    PAW_PBE Ta_pv 07Sep2000               
 POTCAR:    PAW_PBE Ga_d 06Jul2010                
 POTCAR:    PAW_PBE Se 06Sep2000                  
 POTCAR:    PAW_PBE Ta_pv 07Sep2000               
   VRHFIN =Ta:  5p6s5d                                                          
   LEXCH  = PE                                                                  
   EATOM  =  1047.1984 eV,   76.9669 Ry                                         
                                                                                
   TITEL  = PAW_PBE Ta_pv 07Sep2000                                             
   LULTRA =        F    use ultrasoft PP ?                                      
   IUNSCR =        1    unscreen: 0-lin 1-nonlin 2-no                           
   RPACOR =    2.330    partial core radius                                     
   POMASS =  180.948; ZVAL   =   11.000    mass and valenz                      
   RCORE  =    2.500    outmost cutoff radius                                   
   RWIGS  =    2.840; RWIGS  =    1.503    wigner-seitz radius (au A)           
   ENMAX  =  223.667; ENMIN  =  167.750 eV                                      
   RCLOC  =    2.205    cutoff for local pot                                    
   LCOR   =        T    correct aug charges                                     
   LPAW   =        T    paw PP                                                  
   EAUG   =  377.421                                                            
   DEXC   =    0.000                                                            
   RMAX   =    2.551    core radius for proj-oper                               
   RAUG   =    1.300    factor for augmentation sphere                          
   RDEP   =    2.526    radius for radial grids                                 
   RDEPT  =    2.132    core radius for aug-charge                              
                                                                                
   Atomic configuration                                                         
   15 entries                                                                   
     n  l   j            E        occ.                                          
     1  0  0.50    -67341.2801   2.0000                                         
     2  0  0.50    -11566.9369   2.0000                                         
     2  1  1.50    -10134.1175   6.0000                                         
     3  0  0.50     -2648.5614   2.0000                                         
     3  1  1.50     -2222.6006   6.0000                                         
     3  2  2.50     -1726.3114  10.0000                                         
     4  0  0.50      -538.6957   2.0000                                         
     4  1  1.50      -399.0125   6.0000                                         
     4  2  2.50      -220.3955  10.0000                                         
     4  3  3.50       -23.0371  14.0000                                         
     5  0  0.50       -71.2900   2.0000                                         
     5  1  1.50       -37.8224   6.0000                                         
     5  2  2.50        -2.6455   4.0000                                         
     6  0  0.50        -4.9623   1.0000                                         
     5  3  2.50        -1.3606   0.0000                                         
   Description                                                                  
     l       E           TYP  RCUT    TYP  RCUT                                 
     1    -37.8224449     23  2.500                                             
     1      1.3605826     23  2.500                                             
     2     -2.6454718     23  2.500                                             
     2     -0.6258570     23  2.500                                             
     0     -4.9622674     23  2.500                                             
     0      4.7531427     23  2.500                                             
  local pseudopotential read in
  partial core-charges read in
  partial kinetic energy density read in
  atomic valenz-charges read in
  non local Contribution for L=           1  read in
    real space projection operators read in
  non local Contribution for L=           1  read in
    real space projection operators read in
  non local Contribution for L=           2  read in
    real space projection operators read in
  non local Contribution for L=           2  read in
    real space projection operators read in
  non local Contribution for L=           0  read in
    real space projection operators read in
  non local Contribution for L=           0  read in
    real space projection operators read in
    PAW grid and wavefunctions read in
 
   number of l-projection  operators is LMAX  =           6
   number of lm-projection operators is LMMAX =          18
 
 POTCAR:    PAW_PBE Ga_d 06Jul2010                
   VRHFIN =Ga: s2p1                                                             
   LEXCH  = PE                                                                  
   EATOM  =  2148.8298 eV,  157.9345 Ry                                         
                                                                                
   TITEL  = PAW_PBE Ga_d 06Jul2010                                              
   LULTRA =        F    use ultrasoft PP ?                                      
   IUNSCR =        1    unscreen: 0-lin 1-nonlin 2-no                           
   RPACOR =    1.700    partial core radius                                     
   POMASS =   69.723; ZVAL   =   13.000    mass and valenz                      
   RCORE  =    2.300    outmost cutoff radius                                   
   RWIGS  =    2.300; RWIGS  =    1.217    wigner-seitz radius (au A)           
   ENMAX  =  282.691; ENMIN  =  212.018 eV                                      
   ICORE  =        3    local potential                                         
   LCOR   =        T    correct aug charges                                     
   LPAW   =        T    paw PP                                                  
   EAUG   =  490.690                                                            
   DEXC   =    0.000                                                            
   RMAX   =    2.341    core radius for proj-oper                               
   RAUG   =    1.300    factor for augmentation sphere                          
   RDEP   =    2.413    radius for radial grids                                 
   RDEPT  =    1.856    core radius for aug-charge                              
                                                                                
   Atomic configuration                                                         
    9 entries                                                                   
     n  l   j            E        occ.                                          
     1  0  0.50    -10228.7831   2.0000                                         
     2  0  0.50     -1262.1604   2.0000                                         
     2  1  1.50     -1098.6333   6.0000                                         
     3  0  0.50      -148.1110   2.0000                                         
     3  1  1.50       -98.8436   6.0000                                         
     3  2  2.50       -19.1549  10.0000                                         
     4  0  0.50        -8.9483   2.0000                                         
     4  1  0.50        -2.5791   1.0000                                         
     4  3  2.50        -2.7416   0.0000                                         
   Description                                                                  
     l       E           TYP  RCUT    TYP  RCUT                                 
     2    -19.1549037     23  2.300                                             
     2     -5.4423304     23  2.300                                             
     0     -8.9483111     23  2.300                                             
     0     68.0291300     23  2.300                                             
     1     -2.5790802     23  2.100                                             
     1     81.6349560     23  2.300                                             
     3      6.8029130     23  2.300                                             
  local pseudopotential read in
  partial core-charges read in
  partial kinetic energy density read in
  atomic valenz-charges read in
  non local Contribution for L=           2  read in
    real space projection operators read in
  non local Contribution for L=           2  read in
    real space projection operators read in
  non local Contribution for L=           0  read in
    real space projection operators read in
  non local Contribution for L=           0  read in
    real space projection operators read in
  non local Contribution for L=           1  read in
    real space projection operators read in
  non local Contribution for L=           1  read in
    real space projection operators read in
    PAW grid and wavefunctions read in
 
   number of l-projection  operators is LMAX  =           6
   number of lm-projection operators is LMMAX =          18
 
 POTCAR:    PAW_PBE Se 06Sep2000                  
   VRHFIN =Se: s2p4                                                             
   LEXCH  = PE                                                                  
   EATOM  =   257.1286 eV,   18.8984 Ry                                         
                                                                                
   TITEL  = PAW_PBE Se 06Sep2000                                                
   LULTRA =        F    use ultrasoft PP ?                                      
   IUNSCR =        1    unscreen: 0-lin 1-nonlin 2-no                           
   RPACOR =    1.900    partial core radius                                     
   POMASS =   78.960; ZVAL   =    6.000    mass and valenz                      
   RCORE  =    2.100    outmost cutoff radius                                   
   RWIGS  =    2.200; RWIGS  =    1.164    wigner-seitz radius (au A)           
   ENMAX  =  211.555; ENMIN  =  158.666 eV                                      
   ICORE  =        3    local potential                                         
   LCOR   =        T    correct aug charges                                     
   LPAW   =        T    paw PP                                                  
   EAUG   =  446.842                                                            
   DEXC   =    0.000                                                            
   RMAX   =    2.147    core radius for proj-oper                               
   RAUG   =    1.300    factor for augmentation sphere                          
   RDEP   =    2.177    radius for radial grids                                 
   RDEPT  =    1.928    core radius for aug-charge                              
                                                                                
   Atomic configuration                                                         
   10 entries                                                                   
     n  l   j            E        occ.                                          
     1  0  0.50    -12503.4787   2.0000                                         
     2  0  0.50     -1606.9547   2.0000                                         
     2  1  1.50     -1413.3140   6.0000                                         
     3  0  0.50      -213.4885   2.0000                                         
     3  1  1.50      -152.9538   6.0000                                         
     3  2  2.50       -53.1221  10.0000                                         
     4  0  0.50       -17.2865   2.0000                                         
     4  1  0.50        -6.5110   4.0000                                         
     4  2  2.50        -6.8029   0.0000                                         
     4  3  2.50        -6.8029   0.0000                                         
   Description                                                                  
     l       E           TYP  RCUT    TYP  RCUT                                 
     0    -17.2865377     23  2.100                                             
     0    -15.3094411     23  2.100                                             
     1     -6.5110275     23  2.100                                             
     1     -0.0695192     23  2.100                                             
     2     -6.8029130     23  2.100                                             
     3     -1.3605826      7  2.100                                             
  local pseudopotential read in
  partial core-charges read in
  partial kinetic energy density read in
  atomic valenz-charges read in
  non local Contribution for L=           0  read in
    real space projection operators read in
  non local Contribution for L=           0  read in
    real space projection operators read in
  non local Contribution for L=           1  read in
    real space projection operators read in
  non local Contribution for L=           1  read in
    real space projection operators read in
  non local Contribution for L=           2  read in
    real space projection operators read in
    PAW grid and wavefunctions read in
 
   number of l-projection  operators is LMAX  =           5
   number of lm-projection operators is LMMAX =          13
 
  PAW_PBE Ta_pv 07Sep2000               :
 energy of atom  1       EATOM=-1047.1984
 kinetic energy error for atom=    0.0016 (will be added to EATOM!!)
  PAW_PBE Ga_d 06Jul2010                :
 energy of atom  2       EATOM=-2148.8298
 kinetic energy error for atom=    0.0026 (will be added to EATOM!!)
  PAW_PBE Se 06Sep2000                  :
 energy of atom  3       EATOM= -257.1286
 kinetic energy error for atom=    0.0007 (will be added to EATOM!!)
 
 
 POSCAR: Ta4 Ga1 Se8                             
  positions in direct lattice
  velocities in cartesian coordinates
 exchange correlation table for  LEXCH =        8
   RHO(1)=    0.500       N(1)  =     2000
   RHO(2)=  100.500       N(2)  =     4000
 


--------------------------------------------------------------------------------------------------------


 ion  position               nearest neighbor table
   1  0.604  0.604  0.189-   9 2.49   8 2.49   7 2.49  13 2.66  12 2.66  11 2.66   2 2.93   3 2.93
                             4 2.93
   2  0.604  0.189  0.604-   8 2.49   6 2.49   9 2.49  13 2.66  12 2.66  10 2.66   1 2.93   3 2.93
                             4 2.93
   3  0.189  0.604  0.604-   7 2.49   6 2.49   9 2.49  13 2.66  11 2.66  10 2.66   1 2.93   2 2.93
                             4 2.93
   4  0.604  0.604  0.604-   6 2.49   7 2.49   8 2.49  10 2.66  11 2.66  12 2.66   1 2.93   2 2.93
                             3 2.93
   5  0.000  0.000  0.000-  10 2.31  11 2.31  12 2.31  13 2.31
   6  0.360  0.360  0.920-   4 2.49   3 2.49   2 2.49
   7  0.360  0.920  0.360-   3 2.49   1 2.49   4 2.49
   8  0.920  0.360  0.360-   2 2.49   1 2.49   4 2.49
   9  0.360  0.360  0.360-   1 2.49   2 2.49   3 2.49
  10  0.867  0.867  0.400-   5 2.31   4 2.66   2 2.66   3 2.66
  11  0.867  0.400  0.867-   5 2.31   4 2.66   1 2.66   3 2.66
  12  0.400  0.867  0.867-   5 2.31   4 2.66   1 2.66   2 2.66
  13  0.867  0.867  0.867-   5 2.31   2 2.66   3 2.66   1 2.66
 
  LATTYP: Found a face centered cubic cell.
 ALAT       =     9.9940000000
  
  Lattice vectors:
  
 A1 = (   0.0000000000,   4.9970000000,   4.9970000000)
 A2 = (   4.9970000000,   0.0000000000,   4.9970000000)
 A3 = (   4.9970000000,   4.9970000000,   0.0000000000)


Analysis of symmetry for initial positions (statically):
=====================================================================
 Subroutine PRICEL returns:
 Original cell was already a primitive cell.
 

 Routine SETGRP: Setting up the symmetry group for a 
 face centered cubic supercell.


 Subroutine GETGRP returns: Found 24 space group operations
 (whereof 24 operations were pure point group operations)
 out of a pool of 48 trial point group operations.


The static configuration has the point symmetry T_d .


Analysis of symmetry for dynamics (positions and initial velocities):
=====================================================================
 Subroutine PRICEL returns:
 Original cell was already a primitive cell.
 

 Routine SETGRP: Setting up the symmetry group for a 
 face centered cubic supercell.


 Subroutine GETGRP returns: Found 24 space group operations
 (whereof 24 operations were pure point group operations)
 out of a pool of 48 trial point group operations.


The dynamic configuration has the point symmetry T_d .


Analysis of magnetic symmetry:
=====================================================================
 Subroutine PRICEL returns:
 Original cell was already a primitive cell.
 

 Subroutine MAGSYM returns: Found 24 space group operations
 (whereof 24 operations were pure point group operations)
 out of a pool of 24 trial space group operations
 (whereof 24 operations were pure point group operations)
 and found also     1 'primitive' translations


The magnetic configuration has the point symmetry T_d .
 
 
 KPOINTS: K-Mesh                                  

Automatic generation of k-mesh.
Space group operators:
 irot       det(A)        alpha          n_x          n_y          n_z        tau_x        tau_y        tau_z
    1     1.000000     0.000000     1.000000     0.000000     0.000000     0.000000     0.000000     0.000000
    2     1.000000   120.000000    -0.577350    -0.577350    -0.577350     0.000000     0.000000     0.000000
    3     1.000000   120.000000     0.577350     0.577350     0.577350     0.000000     0.000000     0.000000
    4    -1.000000    90.000000     0.000000     0.000000    -1.000000     0.000000     0.000000     0.000000
    5    -1.000000   180.000000     0.000000     0.707107     0.707107     0.000000     0.000000     0.000000
    6    -1.000000    90.000000     0.000000     1.000000     0.000000     0.000000     0.000000     0.000000
    7     1.000000   180.000000     0.000000     0.000000     1.000000     0.000000     0.000000     0.000000
    8     1.000000   120.000000    -0.577350     0.577350     0.577350     0.000000     0.000000     0.000000
    9     1.000000   120.000000    -0.577350     0.577350    -0.577350     0.000000     0.000000     0.000000
   10    -1.000000    90.000000     0.000000     0.000000     1.000000     0.000000     0.000000     0.000000
   11    -1.000000    90.000000    -1.000000     0.000000     0.000000     0.000000     0.000000     0.000000
   12    -1.000000   180.000000     0.707107     0.000000     0.707107     0.000000     0.000000     0.000000
   13     1.000000   120.000000     0.577350    -0.577350     0.577350     0.000000     0.000000     0.000000
   14     1.000000   120.000000    -0.577350    -0.577350     0.577350     0.000000     0.000000     0.000000
   15     1.000000   180.000000     1.000000     0.000000     0.000000     0.000000     0.000000     0.000000
   16    -1.000000    90.000000     0.000000    -1.000000     0.000000     0.000000     0.000000     0.000000
   17    -1.000000   180.000000     0.707107     0.707107     0.000000     0.000000     0.000000     0.000000
   18    -1.000000    90.000000     1.000000     0.000000     0.000000     0.000000     0.000000     0.000000
   19     1.000000   120.000000     0.577350    -0.577350    -0.577350     0.000000     0.000000     0.000000
   20     1.000000   180.000000     0.000000     1.000000     0.000000     0.000000     0.000000     0.000000
   21     1.000000   120.000000     0.577350     0.577350    -0.577350     0.000000     0.000000     0.000000
   22    -1.000000   180.000000     0.000000    -0.707107     0.707107     0.000000     0.000000     0.000000
   23    -1.000000   180.000000     0.707107    -0.707107     0.000000     0.000000     0.000000     0.000000
   24    -1.000000   180.000000     0.707107     0.000000    -0.707107     0.000000     0.000000     0.000000
 
 Subroutine IBZKPT returns following result:
 ===========================================
 
 Found     35 irreducible k-points:
 
 Following reciprocal coordinates:
            Coordinates               Weight
  0.000000  0.000000  0.000000      1.000000
  0.111111  0.000000  0.000000      8.000000
  0.222222  0.000000  0.000000      8.000000
  0.333333  0.000000  0.000000      8.000000
  0.444444  0.000000  0.000000      8.000000
  0.111111  0.111111  0.000000      6.000000
  0.222222  0.111111  0.000000     24.000000
  0.333333  0.111111  0.000000     24.000000
  0.444444  0.111111  0.000000     24.000000
 -0.444444  0.111111  0.000000     24.000000
 -0.333333  0.111111  0.000000     24.000000
 -0.222222  0.111111  0.000000     24.000000
 -0.111111  0.111111  0.000000     12.000000
  0.222222  0.222222  0.000000      6.000000
  0.333333  0.222222  0.000000     24.000000
  0.444444  0.222222  0.000000     24.000000
 -0.444444  0.222222  0.000000     24.000000
 -0.333333  0.222222  0.000000     24.000000
 -0.222222  0.222222  0.000000     12.000000
  0.333333  0.333333  0.000000      6.000000
  0.444444  0.333333  0.000000     24.000000
 -0.444444  0.333333  0.000000     24.000000
 -0.333333  0.333333  0.000000     12.000000
  0.444444  0.444444  0.000000      6.000000
 -0.444444  0.444444  0.000000     12.000000
  0.333333  0.222222  0.111111     24.000000
  0.444444  0.222222  0.111111     48.000000
 -0.444444  0.222222  0.111111     48.000000
  0.444444  0.333333  0.111111     24.000000
 -0.444444  0.333333  0.111111     48.000000
 -0.333333  0.333333  0.111111     48.000000
 -0.222222  0.333333  0.111111     24.000000
 -0.444444  0.444444  0.111111     24.000000
 -0.333333  0.444444  0.111111     24.000000
 -0.333333  0.444444  0.222222     24.000000
 
 Following cartesian coordinates:
            Coordinates               Weight
  0.000000  0.000000  0.000000      1.000000
 -0.011118  0.011118  0.011118      8.000000
 -0.022236  0.022236  0.022236      8.000000
 -0.033353  0.033353  0.033353      8.000000
 -0.044471  0.044471  0.044471      8.000000
  0.000000  0.000000  0.022236      6.000000
 -0.011118  0.011118  0.033353     24.000000
 -0.022236  0.022236  0.044471     24.000000
 -0.033353  0.033353  0.055589     24.000000
  0.055589 -0.055589 -0.033353     24.000000
  0.044471 -0.044471 -0.022236     24.000000
  0.033353 -0.033353 -0.011118     24.000000
  0.022236 -0.022236  0.000000     12.000000
  0.000000  0.000000  0.044471      6.000000
 -0.011118  0.011118  0.055589     24.000000
 -0.022236  0.022236  0.066707     24.000000
  0.066707 -0.066707 -0.022236     24.000000
  0.055589 -0.055589 -0.011118     24.000000
  0.044471 -0.044471  0.000000     12.000000
  0.000000  0.000000  0.066707      6.000000
 -0.011118  0.011118  0.077824     24.000000
  0.077824 -0.077824 -0.011118     24.000000
  0.066707 -0.066707  0.000000     12.000000
  0.000000  0.000000  0.088942      6.000000
  0.088942 -0.088942  0.000000     12.000000
  0.000000  0.022236  0.044471     24.000000
 -0.011118  0.033353  0.055589     48.000000
  0.077824 -0.055589 -0.033353     48.000000
  0.000000  0.022236  0.066707     24.000000
  0.088942 -0.066707 -0.022236     48.000000
  0.077824 -0.055589 -0.011118     48.000000
  0.066707 -0.044471  0.000000     24.000000
  0.100060 -0.077824 -0.011118     24.000000
  0.088942 -0.066707  0.000000     24.000000
  0.100060 -0.055589 -0.011118     24.000000
 


--------------------------------------------------------------------------------------------------------




 Dimension of arrays:
   k-points           NKPTS =     35   k-points in BZ     NKDIM =     35   number of bands    NBANDS=     72
   number of dos      NEDOS =    301   number of ions     NIONS =     13
   non local maximal  LDIM  =      6   non local SUM 2l+1 LMDIM =     18
   total plane-waves  NPLWV = 157464
   max r-space proj   IRMAX =      1   max aug-charges    IRDMAX= 283758
   dimension x,y,z NGX =    54 NGY =   54 NGZ =   54
   dimension x,y,z NGXF=   108 NGYF=  108 NGZF=  108
   support grid    NGXF=   216 NGYF=  216 NGZF=  216
   ions per type =               4   1   8
 NGX,Y,Z   is equivalent  to a cutoff of  12.70, 12.70, 12.70 a.u.
 NGXF,Y,Z  is equivalent  to a cutoff of  25.41, 25.41, 25.41 a.u.


 I would recommend the setting:
   dimension x,y,z NGX =    53 NGY =   53 NGZ =   53
 SYSTEM =  unknown system                          
 POSCAR =  Ta4 Ga1 Se8                             

 Startparameter for this run:
   NWRITE =      2    write-flag & timer
   PREC   = accura    normal or accurate (medium, high low for compatibility)
   ISTART =      0    job   : 0-new  1-cont  2-samecut
   ICHARG =      2    charge: 1-file 2-atom 10-const
   ISPIN  =      2    spin polarized calculation?
   LNONCOLLINEAR =      F non collinear calculations
   LSORBIT =      F    spin-orbit coupling
   INIWAV =      1    electr: 0-lowe 1-rand  2-diag
   LASPH  =      F    aspherical Exc in radial PAW
   METAGGA=      F    non-selfconsistent MetaGGA calc.

 Electronic Relaxation 1
   ENCUT  =  520.0 eV  38.22 Ry    6.18 a.u.  13.14 13.14 13.14*2*pi/ulx,y,z
   ENINI  =  520.0     initial cutoff
   ENAUG  =  490.7 eV  augmentation charge cutoff
   NELM   =    140;   NELMIN=  6; NELMDL= -5     # of ELM steps 
   EDIFF  = 0.1E-03   stopping-criterion for ELM
   LREAL  =      F    real-space projection
   NLSPLINE    = F    spline interpolate recip. space projectors
   LCOMPAT=      F    compatible to vasp.4.4
   GGA_COMPAT  = T    GGA compatible to vasp.4.4-vasp.4.6
   LMAXPAW     = -100 max onsite density
   LMAXMIX     =    4 max onsite mixed and CHGCAR
   VOSKOWN=      0    Vosko Wilk Nusair interpolation
   ROPT   =    0.00000   0.00000   0.00000
 Ionic relaxation
   EDIFFG = -.1E-01   stopping-criterion for IOM
   NSW    =      0    number of steps for IOM
   NBLOCK =      1;   KBLOCK =      1    inner block; outer block 
   IBRION =     -1    ionic relax: 0-MD 1-quasi-New 2-CG
   NFREE  =      0    steps in history (QN), initial steepest desc. (CG)
   ISIF   =      2    stress and relaxation
   IWAVPR =     10    prediction:  0-non 1-charg 2-wave 3-comb
   ISYM   =      2    0-nonsym 1-usesym 2-fastsym
   LCORR  =      T    Harris-Foulkes like correction to forces

   POTIM  = 0.0500    time-step for ionic-motion
   TEIN   =    0.0    initial temperature
   TEBEG  =    0.0;   TEEND  =   0.0 temperature during run
   SMASS  =  -3.00    Nose mass-parameter (am)
   estimated Nose-frequenzy (Omega)   =  0.10E-29 period in steps =****** mass=  -0.114E-26a.u.
   SCALEE = 1.0000    scale energy and forces
   NPACO  =    256;   APACO  = 16.0  distance and # of slots for P.C.
   PSTRESS=    0.0 pullay stress

  Mass of Ions in am
   POMASS = 180.95 69.72 78.96
  Ionic Valenz
   ZVAL   =  11.00 13.00  6.00
  Atomic Wigner-Seitz radii
   RWIGS  =  -1.00 -1.00 -1.00
  virtual crystal weights 
   VCA    =   1.00  1.00  1.00
   NELECT =     105.0000    total number of electrons
   NUPDOWN=      -1.0000    fix difference up-down

 DOS related values:
   EMIN   =  10.00;   EMAX   =-10.00  energy-range for DOS
   EFERMI =   0.00
   ISMEAR =     0;   SIGMA  =   0.05  broadening in eV -4-tet -1-fermi 0-gaus

 Electronic relaxation 2 (details)
   IALGO  =     38    algorithm
   LDIAG  =      T    sub-space diagonalisation (order eigenvalues)
   LSUBROT=      F    optimize rotation matrix (better conditioning)
   TURBO    =      0    0=normal 1=particle mesh
   IRESTART =      0    0=no restart 2=restart with 2 vectors
   NREBOOT  =      0    no. of reboots
   NMIN     =      0    reboot dimension
   EREF     =   0.00    reference energy to select bands
   IMIX   =      4    mixing-type and parameters
     AMIX     =   0.10;   BMIX     =  1.20
     AMIX_MAG =   0.40;   BMIX_MAG =  1.20
     AMIN     =   0.10
     WC   =   100.;   INIMIX=   1;  MIXPRE=   1;  MAXMIX= -45

 Intra band minimization:
   WEIMIN = 0.0000     energy-eigenvalue tresh-hold
   EBREAK =  0.35E-06  absolut break condition
   DEPER  =   0.30     relativ break condition  

   TIME   =   0.40     timestep for ELM

  volume/ion in A,a.u.               =      19.20       129.54
  Fermi-wavevector in a.u.,A,eV,Ry     =   1.226738  2.318199 20.475228  1.504887
  Thomas-Fermi vector in A             =   2.361728
 
 Write flags
   LWAVE  =      F    write WAVECAR
   LCHARG =      T    write CHGCAR
   LVTOT  =      F    write LOCPOT, total local potential
   LVHAR  =      F    write LOCPOT, Hartree potential only
   LELF   =      F    write electronic localiz. function (ELF)
   LORBIT =     11    0 simple, 1 ext, 2 COOP (PROOUT)


 Dipole corrections
   LMONO  =      F    monopole corrections only (constant potential shift)
   LDIPOL =      F    correct potential (dipole corrections)
   IDIPOL =      0    1-x, 2-y, 3-z, 4-all directions 
   EPSILON=  1.0000000 bulk dielectric constant

 LDA+U is selected, type is set to LDAUTYPE =  2
   angular momentum for each species LDAUL =     2    2   -1
   U (eV)           for each species LDAUU =   2.0  3.9  0.0
   J (eV)           for each species LDAUJ =   0.0  0.0  0.0
 Exchange correlation treatment:
   GGA     =    --    GGA type
   LEXCH   =     8    internal setting for exchange type
   VOSKOWN=      0    Vosko Wilk Nusair interpolation
   LHFCALC =     F    Hartree Fock is set to
   LHFONE  =     F    Hartree Fock one center treatment
   AEXX    =    0.0000 exact exchange contribution

 Linear response parameters
   LEPSILON=     F    determine dielectric tensor
   LRPA    =     F    only Hartree local field effects (RPA)
   LNABLA  =     F    use nabla operator in PAW spheres
   LVEL    =     F    velocity operator in full k-point grid
   LINTERFAST=   F  fast interpolation
   KINTER  =     0    interpolate to denser k-point grid
   CSHIFT  =0.1000    complex shift for real part using Kramers Kronig
   OMEGAMAX=  -1.0    maximum frequency
   DEG_THRESHOLD= 0.2000000E-02 threshold for treating states as degnerate
   RTIME   =    0.100 relaxation time in fs

 Orbital magnetization related:
   ORBITALMAG=     F  switch on orbital magnetization
   LCHIMAG   =     F  perturbation theory with respect to B field
   DQ        =  0.001000  dq finite difference perturbation B field



--------------------------------------------------------------------------------------------------------


 Static calculation
 charge density and potential will be updated during run
 spin polarized calculation
 Variant of blocked Davidson
 Davidson routine will perform the subspace rotation
 perform sub-space diagonalisation
    after iterative eigenvector-optimisation
 modified Broyden-mixing scheme, WC =      100.0
 initial mixing is a Kerker type mixing with AMIX =  0.1000 and BMIX =      1.2000
 Hartree-type preconditioning will be used
 using additional bands           19
 reciprocal scheme for non local part
 use partial core corrections
 calculate Harris-corrections to forces 
   (improved forces if not selfconsistent)
 use gradient corrections 
 use of overlap-Matrix (Vanderbilt PP)
 Gauss-broadening in eV      SIGMA  =   0.05


--------------------------------------------------------------------------------------------------------


  energy-cutoff  :      520.00
  volume of cell :      249.55
      direct lattice vectors                 reciprocal lattice vectors
     0.000000000  4.997000000  4.997000000    -0.100060036  0.100060036  0.100060036
     4.997000000  0.000000000  4.997000000     0.100060036 -0.100060036  0.100060036
     4.997000000  4.997000000  0.000000000     0.100060036  0.100060036 -0.100060036

  length of vectors
     7.066825171  7.066825171  7.066825171     0.173309066  0.173309066  0.173309066


 
 k-points in units of 2pi/SCALE and weight: K-Mesh                                  
   0.00000000  0.00000000  0.00000000       0.001
  -0.01111778  0.01111778  0.01111778       0.011
  -0.02223556  0.02223556  0.02223556       0.011
  -0.03335335  0.03335335  0.03335335       0.011
  -0.04447113  0.04447113  0.04447113       0.011
   0.00000000  0.00000000  0.02223556       0.008
  -0.01111778  0.01111778  0.03335335       0.033
  -0.02223556  0.02223556  0.04447113       0.033
  -0.03335335  0.03335335  0.05558891       0.033
   0.05558891 -0.05558891 -0.03335335       0.033
   0.04447113 -0.04447113 -0.02223556       0.033
   0.03335335 -0.03335335 -0.01111778       0.033
   0.02223556 -0.02223556  0.00000000       0.016
   0.00000000  0.00000000  0.04447113       0.008
  -0.01111778  0.01111778  0.05558891       0.033
  -0.02223556  0.02223556  0.06670669       0.033
   0.06670669 -0.06670669 -0.02223556       0.033
   0.05558891 -0.05558891 -0.01111778       0.033
   0.04447113 -0.04447113  0.00000000       0.016
   0.00000000  0.00000000  0.06670669       0.008
  -0.01111778  0.01111778  0.07782447       0.033
   0.07782447 -0.07782447 -0.01111778       0.033
   0.06670669 -0.06670669  0.00000000       0.016
   0.00000000  0.00000000  0.08894225       0.008
   0.08894225 -0.08894225  0.00000000       0.016
   0.00000000  0.02223556  0.04447113       0.033
  -0.01111778  0.03335335  0.05558891       0.066
   0.07782447 -0.05558891 -0.03335335       0.066
   0.00000000  0.02223556  0.06670669       0.033
   0.08894225 -0.06670669 -0.02223556       0.066
   0.07782447 -0.05558891 -0.01111778       0.066
   0.06670669 -0.04447113  0.00000000       0.033
   0.10006004 -0.07782447 -0.01111778       0.033
   0.08894225 -0.06670669  0.00000000       0.033
   0.10006004 -0.05558891 -0.01111778       0.033
 
 k-points in reciprocal lattice and weights: K-Mesh                                  
   0.00000000  0.00000000  0.00000000       0.001
   0.11111111  0.00000000  0.00000000       0.011
   0.22222222  0.00000000  0.00000000       0.011
   0.33333333  0.00000000  0.00000000       0.011
   0.44444444  0.00000000  0.00000000       0.011
   0.11111111  0.11111111  0.00000000       0.008
   0.22222222  0.11111111  0.00000000       0.033
   0.33333333  0.11111111  0.00000000       0.033
   0.44444444  0.11111111  0.00000000       0.033
  -0.44444444  0.11111111  0.00000000       0.033
  -0.33333333  0.11111111  0.00000000       0.033
  -0.22222222  0.11111111  0.00000000       0.033
  -0.11111111  0.11111111  0.00000000       0.016
   0.22222222  0.22222222  0.00000000       0.008
   0.33333333  0.22222222  0.00000000       0.033
   0.44444444  0.22222222  0.00000000       0.033
  -0.44444444  0.22222222  0.00000000       0.033
  -0.33333333  0.22222222  0.00000000       0.033
  -0.22222222  0.22222222  0.00000000       0.016
   0.33333333  0.33333333  0.00000000       0.008
   0.44444444  0.33333333  0.00000000       0.033
  -0.44444444  0.33333333  0.00000000       0.033
  -0.33333333  0.33333333  0.00000000       0.016
   0.44444444  0.44444444  0.00000000       0.008
  -0.44444444  0.44444444  0.00000000       0.016
   0.33333333  0.22222222  0.11111111       0.033
   0.44444444  0.22222222  0.11111111       0.066
  -0.44444444  0.22222222  0.11111111       0.066
   0.44444444  0.33333333  0.11111111       0.033
  -0.44444444  0.33333333  0.11111111       0.066
  -0.33333333  0.33333333  0.11111111       0.066
  -0.22222222  0.33333333  0.11111111       0.033
  -0.44444444  0.44444444  0.11111111       0.033
  -0.33333333  0.44444444  0.11111111       0.033
  -0.33333333  0.44444444  0.22222222       0.033
 
 position of ions in fractional coordinates (direct lattice) 
   0.60360000  0.60360000  0.18920000
   0.60360000  0.18920000  0.60360000
   0.18920000  0.60360000  0.60360000
   0.60360000  0.60360000  0.60360000
   0.00000000  0.00000000  0.00000000
   0.36000000  0.36000000  0.92000000
   0.36000000  0.92000000  0.36000000
   0.92000000  0.36000000  0.36000000
   0.36000000  0.36000000  0.36000000
   0.86660000  0.86660000  0.40020000
   0.86660000  0.40020000  0.86660000
   0.40020000  0.86660000  0.86660000
   0.86660000  0.86660000  0.86660000
 
 position of ions in cartesian coordinates  (Angst):
   3.96162160  3.96162160  6.03237840
   3.96162160  6.03237840  3.96162160
   6.03237840  3.96162160  3.96162160
   6.03237840  6.03237840  6.03237840
   0.00000000  0.00000000  0.00000000
   6.39616000  6.39616000  3.59784000
   6.39616000  3.59784000  6.39616000
   3.59784000  6.39616000  6.39616000
   3.59784000  3.59784000  3.59784000
   6.33019960  6.33019960  8.66080040
   6.33019960  8.66080040  6.33019960
   8.66080040  6.33019960  6.33019960
   8.66080040  8.66080040  8.66080040
 


--------------------------------------------------------------------------------------------------------


 k-point  1 :   0.0000 0.0000 0.0000  plane waves:    6735
 k-point  2 :   0.1111 0.0000 0.0000  plane waves:    6714
 k-point  3 :   0.2222 0.0000 0.0000  plane waves:    6705
 k-point  4 :   0.3333 0.0000 0.0000  plane waves:    6724
 k-point  5 :   0.4444 0.0000 0.0000  plane waves:    6721
 k-point  6 :   0.1111 0.1111 0.0000  plane waves:    6707
 k-point  7 :   0.2222 0.1111 0.0000  plane waves:    6710
 k-point  8 :   0.3333 0.1111 0.0000  plane waves:    6719
 k-point  9 :   0.4444 0.1111 0.0000  plane waves:    6703
 k-point 10 :  -0.4444 0.1111 0.0000  plane waves:    6718
 k-point 11 :  -0.3333 0.1111 0.0000  plane waves:    6704
 k-point 12 :  -0.2222 0.1111 0.0000  plane waves:    6702
 k-point 13 :  -0.1111 0.1111 0.0000  plane waves:    6703
 k-point 14 :   0.2222 0.2222 0.0000  plane waves:    6707
 k-point 15 :   0.3333 0.2222 0.0000  plane waves:    6733
 k-point 16 :   0.4444 0.2222 0.0000  plane waves:    6719
 k-point 17 :  -0.4444 0.2222 0.0000  plane waves:    6726
 k-point 18 :  -0.3333 0.2222 0.0000  plane waves:    6720
 k-point 19 :  -0.2222 0.2222 0.0000  plane waves:    6717
 k-point 20 :   0.3333 0.3333 0.0000  plane waves:    6698
 k-point 21 :   0.4444 0.3333 0.0000  plane waves:    6730
 k-point 22 :  -0.4444 0.3333 0.0000  plane waves:    6730
 k-point 23 :  -0.3333 0.3333 0.0000  plane waves:    6745
 k-point 24 :   0.4444 0.4444 0.0000  plane waves:    6738
 k-point 25 :  -0.4444 0.4444 0.0000  plane waves:    6738
 k-point 26 :   0.3333 0.2222 0.1111  plane waves:    6712
 k-point 27 :   0.4444 0.2222 0.1111  plane waves:    6711
 k-point 28 :  -0.4444 0.2222 0.1111  plane waves:    6727
 k-point 29 :   0.4444 0.3333 0.1111  plane waves:    6716
 k-point 30 :  -0.4444 0.3333 0.1111  plane waves:    6722
 k-point 31 :  -0.3333 0.3333 0.1111  plane waves:    6722
 k-point 32 :  -0.2222 0.3333 0.1111  plane waves:    6704
 k-point 33 :  -0.4444 0.4444 0.1111  plane waves:    6721
 k-point 34 :  -0.3333 0.4444 0.1111  plane waves:    6730
 k-point 35 :  -0.3333 0.4444 0.2222  plane waves:    6721

 maximum and minimum number of plane-waves per node :       572      545

 maximum number of plane-waves:      6745
 maximum index in each direction: 
   IXMAX=   13   IYMAX=   13   IZMAX=   13
   IXMIN=  -13   IYMIN=  -13   IZMIN=  -13

 NGX is ok and might be reduce to  54
 NGY is ok and might be reduce to  54
 NGZ is ok and might be reduce to  54

 parallel 3D FFT for wavefunctions:
    minimum data exchange during FFTs selected (reduces bandwidth)
 parallel 3D FFT for charge:
    minimum data exchange during FFTs selected (reduces bandwidth)


 total amount of memory used by VASP on root node    53097. kBytes
========================================================================

   base      :      30000. kBytes
   nonl-proj :       8644. kBytes
   fftplans  :       3068. kBytes
   grid      :       3259. kBytes
   one-center:         62. kBytes
   wavefun   :       8064. kBytes
 
     INWAV:  cpu time    0.0000: real time    0.0003
 Broyden mixing: mesh for mixing (old mesh)
   NGX = 27   NGY = 27   NGZ = 27
  (NGX  =108   NGY  =108   NGZ  =108)
  gives a total of  19683 points

 initial charge density was supplied:
 charge density of overlapping atoms calculated
 number of electron     105.0000000 magnetization      13.0000000
 keeping initial charge density in first step


--------------------------------------------------------------------------------------------------------


 Maximum index for augmentation-charges         4239 (set IRDMAX)


--------------------------------------------------------------------------------------------------------


 First call to EWALD:  gamma=   0.282
 Maximum number of real-space cells 3x 3x 3
 Maximum number of reciprocal cells 3x 3x 3

 FEWALD executed in parallel
    FEWALD:  cpu time    0.0040: real time    0.0080


----------------------------------------- Iteration    1(   1)  ---------------------------------------


    POTLOK:  cpu time    0.0950: real time    0.1077
    SETDIJ:  cpu time    0.1780: real time    0.1806
     EDDAV:  cpu time    6.7590: real time    6.9925
       DOS:  cpu time    0.0060: real time    0.0144
    --------------------------------------------
      LOOP:  cpu time    7.0429: real time    7.7219

 eigenvalue-minimisations  : 11100
 total energy-change (2. order) : 0.9844776E+03  (-0.5004213E+04)
 number of electron     105.0000000 magnetization      13.0000000
 augmentation part      105.0000000 magnetization      13.0000000

 Free energy of the ion-electron system (eV)
  ---------------------------------------------------
  alpha Z        PSCENC =       590.10286658
  Ewald energy   TEWEN  =     -6473.88748535
  -Hartree energ DENC   =     -1817.87196087
  -exchange      EXHF   =         0.00000000
  -V(xc)+E(xc)   XCENC  =       138.98599804
  PAW double counting   =      6568.38814909    -6703.61005876
  entropy T*S    EENTRO =        -0.00383838
  eigenvalues    EBANDS =       287.73683479
  atomic energy  EATOM  =      8394.63709520
  Solvation  Ediel_sol  =         0.00000000
  ---------------------------------------------------
  free energy    TOTEN  =       984.47760035 eV

  energy without entropy =      984.48143872  energy(sigma->0) =      984.47951953


--------------------------------------------------------------------------------------------------------




----------------------------------------- Iteration    1(   2)  ---------------------------------------


     EDDAV:  cpu time    6.6540: real time    6.6696
       DOS:  cpu time    0.0030: real time    0.0028
    --------------------------------------------
      LOOP:  cpu time    6.6610: real time    6.6866

 eigenvalue-minimisations  : 11028
 total energy-change (2. order) :-0.9585817E+03  (-0.9125728E+03)
 number of electron     105.0000000 magnetization      13.0000000
 augmentation part      105.0000000 magnetization      13.0000000

 Free energy of the ion-electron system (eV)
  ---------------------------------------------------
  alpha Z        PSCENC =       590.10286658
  Ewald energy   TEWEN  =     -6473.88748535
  -Hartree energ DENC   =     -1817.87196087
  -exchange      EXHF   =         0.00000000
  -V(xc)+E(xc)   XCENC  =       138.98599804
  PAW double counting   =      6568.38814909    -6703.61005876
  entropy T*S    EENTRO =        -0.00330215
  eigenvalues    EBANDS =      -670.84544622
  atomic energy  EATOM  =      8394.63709520
  Solvation  Ediel_sol  =         0.00000000
  ---------------------------------------------------
  free energy    TOTEN  =        25.89585556 eV

  energy without entropy =       25.89915772  energy(sigma->0) =       25.89750664


--------------------------------------------------------------------------------------------------------




----------------------------------------- Iteration    1(   3)  ---------------------------------------


     EDDAV:  cpu time    7.0579: real time    7.0753
       DOS:  cpu time    0.0030: real time    0.0028
    --------------------------------------------
      LOOP:  cpu time    7.0629: real time    7.0942

 eigenvalue-minimisations  : 12000
 total energy-change (2. order) :-0.1021756E+03  (-0.9918147E+02)
 number of electron     105.0000000 magnetization      13.0000000
 augmentation part      105.0000000 magnetization      13.0000000

 Free energy of the ion-electron system (eV)
  ---------------------------------------------------
  alpha Z        PSCENC =       590.10286658
  Ewald energy   TEWEN  =     -6473.88748535
  -Hartree energ DENC   =     -1817.87196087
  -exchange      EXHF   =         0.00000000
  -V(xc)+E(xc)   XCENC  =       138.98599804
  PAW double counting   =      6568.38814909    -6703.61005876
  entropy T*S    EENTRO =        -0.00296070
  eigenvalues    EBANDS =      -773.02139455
  atomic energy  EATOM  =      8394.63709520
  Solvation  Ediel_sol  =         0.00000000
  ---------------------------------------------------
  free energy    TOTEN  =       -76.27975132 eV

  energy without entropy =      -76.27679062  energy(sigma->0) =      -76.27827097


--------------------------------------------------------------------------------------------------------




----------------------------------------- Iteration    1(   4)  ---------------------------------------


     EDDAV:  cpu time    7.3089: real time    7.3261
       DOS:  cpu time    0.0030: real time    0.0027
    --------------------------------------------
      LOOP:  cpu time    7.3139: real time    7.3408

 eigenvalue-minimisations  : 12528
 total energy-change (2. order) :-0.4106598E+01  (-0.4068306E+01)
 number of electron     105.0000000 magnetization      13.0000000
 augmentation part      105.0000000 magnetization      13.0000000

 Free energy of the ion-electron system (eV)
  ---------------------------------------------------
  alpha Z        PSCENC =       590.10286658
  Ewald energy   TEWEN  =     -6473.88748535
  -Hartree energ DENC   =     -1817.87196087
  -exchange      EXHF   =         0.00000000
  -V(xc)+E(xc)   XCENC  =       138.98599804
  PAW double counting   =      6568.38814909    -6703.61005876
  entropy T*S    EENTRO =        -0.00326058
  eigenvalues    EBANDS =      -777.12769231
  atomic energy  EATOM  =      8394.63709520
  Solvation  Ediel_sol  =         0.00000000
  ---------------------------------------------------
  free energy    TOTEN  =       -80.38634895 eV

  energy without entropy =      -80.38308838  energy(sigma->0) =      -80.38471866


--------------------------------------------------------------------------------------------------------




----------------------------------------- Iteration    1(   5)  ---------------------------------------


     EDDAV:  cpu time    7.3179: real time    7.3337
       DOS:  cpu time    0.0030: real time    0.0029
    CHARGE:  cpu time    0.4309: real time    0.4480
    MIXING:  cpu time    0.0030: real time    0.0123
    --------------------------------------------
      LOOP:  cpu time    7.7568: real time    7.8078

 eigenvalue-minimisations  : 12588
 total energy-change (2. order) :-0.8204017E-01  (-0.8180988E-01)
 number of electron     105.0000000 magnetization      10.8335086
 augmentation part       12.1168337 magnetization       9.9090428

 Broyden mixing:
  rms(total) = 0.36766E+01    rms(broyden)= 0.36766E+01
  rms(prec ) = 0.40638E+01
  weight for this iteration     100.00

 Free energy of the ion-electron system (eV)
  ---------------------------------------------------
  alpha Z        PSCENC =       590.10286658
  Ewald energy   TEWEN  =     -6473.88748535
  -Hartree energ DENC   =     -1817.87196087
  -exchange      EXHF   =         0.00000000
  -V(xc)+E(xc)   XCENC  =       138.98599804
  PAW double counting   =      6568.38814909    -6703.61005876
  entropy T*S    EENTRO =        -0.00329691
  eigenvalues    EBANDS =      -777.20969614
  atomic energy  EATOM  =      8394.63709520
  Solvation  Ediel_sol  =         0.00000000
  ---------------------------------------------------
  free energy    TOTEN  =       -80.46838912 eV

  energy without entropy =      -80.46509221  energy(sigma->0) =      -80.46674067


--------------------------------------------------------------------------------------------------------




----------------------------------------- Iteration    1(   6)  ---------------------------------------


    POTLOK:  cpu time    0.0960: real time    0.0964
    SETDIJ:  cpu time    0.1760: real time    0.1756
     EDDAV:  cpu time    7.4179: real time    7.4387
       DOS:  cpu time    0.0030: real time    0.0029
    CHARGE:  cpu time    0.4289: real time    0.4304
    MIXING:  cpu time    0.0040: real time    0.0303
    --------------------------------------------
      LOOP:  cpu time    8.1278: real time    8.1881

 eigenvalue-minimisations  : 12924
 total energy-change (2. order) : 0.6792870E+00  (-0.7900181E-01)
 number of electron     105.0000000 magnetization       1.3448040
 augmentation part       12.3215392 magnetization       0.4578905

 Broyden mixing:
  rms(total) = 0.31216E+01    rms(broyden)= 0.31216E+01
  rms(prec ) = 0.34115E+01
  weight for this iteration     100.00

 eigenvalues of (default mixing * dielectric matrix)
  average eigenvalue GAMMA=   4.8219
  4.8219

 Free energy of the ion-electron system (eV)
  ---------------------------------------------------
  alpha Z        PSCENC =       590.10286658
  Ewald energy   TEWEN  =     -6473.88748535
  -Hartree energ DENC   =     -1806.44655614
  -exchange      EXHF   =         0.00000000
  -V(xc)+E(xc)   XCENC  =       138.38471852
  PAW double counting   =      7035.12677847    -7171.91527256
  entropy T*S    EENTRO =        -0.00297032
  eigenvalues    EBANDS =      -785.78827656
  atomic energy  EATOM  =      8394.63709520
  Solvation  Ediel_sol  =         0.00000000
  ---------------------------------------------------
  free energy    TOTEN  =       -79.78910216 eV

  energy without entropy =      -79.78613184  energy(sigma->0) =      -79.78761700


--------------------------------------------------------------------------------------------------------




----------------------------------------- Iteration    1(   7)  ---------------------------------------


    POTLOK:  cpu time    0.0950: real time    0.0954
    SETDIJ:  cpu time    0.1760: real time    0.1760
     EDDAV:  cpu time    7.0809: real time    7.0946
       DOS:  cpu time    0.0030: real time    0.0031
    CHARGE:  cpu time    0.4299: real time    0.4307
    MIXING:  cpu time    0.0020: real time    0.0072
    --------------------------------------------
      LOOP:  cpu time    7.7888: real time    7.8220

 eigenvalue-minimisations  : 12180
 total energy-change (2. order) : 0.1138756E+01  (-0.1306316E+01)
 number of electron     105.0000000 magnetization       0.3305957
 augmentation part       13.2096594 magnetization      -0.3027485

 Broyden mixing:
  rms(total) = 0.10041E+01    rms(broyden)= 0.10041E+01
  rms(prec ) = 0.11787E+01
  weight for this iteration     100.00

 eigenvalues of (default mixing * dielectric matrix)
  average eigenvalue GAMMA=   4.7644
  2.8872  6.6416

 Free energy of the ion-electron system (eV)
  ---------------------------------------------------
  alpha Z        PSCENC =       590.10286658
  Ewald energy   TEWEN  =     -6473.88748535
  -Hartree energ DENC   =     -1765.25514987
  -exchange      EXHF   =         0.00000000
  -V(xc)+E(xc)   XCENC  =       137.28095636
  PAW double counting   =      9662.54315657    -9806.05046809
  entropy T*S    EENTRO =        -0.00427115
  eigenvalues    EBANDS =      -818.01704628
  atomic energy  EATOM  =      8394.63709520
  Solvation  Ediel_sol  =         0.00000000
  ---------------------------------------------------
  free energy    TOTEN  =       -78.65034603 eV

  energy without entropy =      -78.64607488  energy(sigma->0) =      -78.64821046


--------------------------------------------------------------------------------------------------------




----------------------------------------- Iteration    1(   8)  ---------------------------------------


    POTLOK:  cpu time    0.0940: real time    0.0948
    SETDIJ:  cpu time    0.1750: real time    0.1762
     EDDAV:  cpu time    7.0889: real time    7.1031
       DOS:  cpu time    0.0030: real time    0.0031
    CHARGE:  cpu time    0.4279: real time    0.4306
    MIXING:  cpu time    0.0030: real time    0.0059
    --------------------------------------------
      LOOP:  cpu time    7.7958: real time    7.8259

 eigenvalue-minimisations  : 12240
 total energy-change (2. order) :-0.2694881E+00  (-0.2449387E+00)
 number of electron     105.0000000 magnetization      -0.7149869
 augmentation part       12.9752526 magnetization      -1.0077209

 Broyden mixing:
  rms(total) = 0.53920E+00    rms(broyden)= 0.53920E+00
  rms(prec ) = 0.65281E+00
  weight for this iteration     100.00

 eigenvalues of (default mixing * dielectric matrix)
  average eigenvalue GAMMA=   4.1595
  8.1987  1.3820  2.8979

 Free energy of the ion-electron system (eV)
  ---------------------------------------------------
  alpha Z        PSCENC =       590.10286658
  Ewald energy   TEWEN  =     -6473.88748535
  -Hartree energ DENC   =     -1777.83579539
  -exchange      EXHF   =         0.00000000
  -V(xc)+E(xc)   XCENC  =       137.48773829
  PAW double counting   =     10709.56372284   -10855.90355977
  entropy T*S    EENTRO =        -0.00656262
  eigenvalues    EBANDS =      -803.07785394
  atomic energy  EATOM  =      8394.63709520
  Solvation  Ediel_sol  =         0.00000000
  ---------------------------------------------------
  free energy    TOTEN  =       -78.91983417 eV

  energy without entropy =      -78.91327155  energy(sigma->0) =      -78.91655286


--------------------------------------------------------------------------------------------------------




----------------------------------------- Iteration    1(   9)  ---------------------------------------


    POTLOK:  cpu time    0.0950: real time    0.0960
    SETDIJ:  cpu time    0.1760: real time    0.1760
     EDDAV:  cpu time    7.2299: real time    7.2455
       DOS:  cpu time    0.0030: real time    0.0030
    CHARGE:  cpu time    0.4299: real time    0.4312
    MIXING:  cpu time    0.0010: real time    0.0014
    --------------------------------------------
      LOOP:  cpu time    7.9378: real time    7.9637

 eigenvalue-minimisations  : 12540
 total energy-change (2. order) : 0.1636218E-01  (-0.4094218E-01)
 number of electron     105.0000000 magnetization      -0.9794968
 augmentation part       13.0826189 magnetization      -1.1971211

 Broyden mixing:
  rms(total) = 0.36370E+00    rms(broyden)= 0.36370E+00
  rms(prec ) = 0.44450E+00
  weight for this iteration     100.00

 eigenvalues of (default mixing * dielectric matrix)
  average eigenvalue GAMMA=   3.6986
  8.9690  2.9928  1.9558  0.8766

 Free energy of the ion-electron system (eV)
  ---------------------------------------------------
  alpha Z        PSCENC =       590.10286658
  Ewald energy   TEWEN  =     -6473.88748535
  -Hartree energ DENC   =     -1770.95365250
  -exchange      EXHF   =         0.00000000
  -V(xc)+E(xc)   XCENC  =       137.45468373
  PAW double counting   =     11236.37373954   -11384.03801063
  entropy T*S    EENTRO =        -0.00682722
  eigenvalues    EBANDS =      -808.58588133
  atomic energy  EATOM  =      8394.63709520
  Solvation  Ediel_sol  =         0.00000000
  ---------------------------------------------------
  free energy    TOTEN  =       -78.90347199 eV

  energy without entropy =      -78.89664477  energy(sigma->0) =      -78.90005838


--------------------------------------------------------------------------------------------------------




----------------------------------------- Iteration    1(  10)  ---------------------------------------


    POTLOK:  cpu time    0.0960: real time    0.0965
    SETDIJ:  cpu time    0.1750: real time    0.1768
     EDDAV:  cpu time    7.3469: real time    7.3627
       DOS:  cpu time    0.0040: real time    0.0034
    CHARGE:  cpu time    0.4279: real time    0.4297
    MIXING:  cpu time    0.0010: real time    0.0016
    --------------------------------------------
      LOOP:  cpu time    8.0548: real time    8.0872

 eigenvalue-minimisations  : 12804
 total energy-change (2. order) : 0.1793778E-01  (-0.1905356E-01)
 number of electron     105.0000000 magnetization      -0.3886238
 augmentation part       13.0894758 magnetization      -0.3889809

 Broyden mixing:
  rms(total) = 0.16694E+00    rms(broyden)= 0.16694E+00
  rms(prec ) = 0.23792E+00
  weight for this iteration     100.00

 eigenvalues of (default mixing * dielectric matrix)
  average eigenvalue GAMMA=   3.3832
  8.6362  3.4538  2.6759  1.0750  1.0750

 Free energy of the ion-electron system (eV)
  ---------------------------------------------------
  alpha Z        PSCENC =       590.10286658
  Ewald energy   TEWEN  =     -6473.88748535
  -Hartree energ DENC   =     -1769.95587151
  -exchange      EXHF   =         0.00000000
  -V(xc)+E(xc)   XCENC  =       137.60250245
  PAW double counting   =     11960.14408414   -12109.73993161
  entropy T*S    EENTRO =        -0.00834220
  eigenvalues    EBANDS =      -807.78045191
  atomic energy  EATOM  =      8394.63709520
  Solvation  Ediel_sol  =         0.00000000
  ---------------------------------------------------
  free energy    TOTEN  =       -78.88553420 eV

  energy without entropy =      -78.87719201  energy(sigma->0) =      -78.88136310


--------------------------------------------------------------------------------------------------------




----------------------------------------- Iteration    1(  11)  ---------------------------------------


    POTLOK:  cpu time    0.0980: real time    0.0979
    SETDIJ:  cpu time    0.1750: real time    0.1756
     EDDAV:  cpu time    7.2089: real time    7.2757
       DOS:  cpu time    0.0030: real time    0.0031
    CHARGE:  cpu time    0.4289: real time    0.4296
    MIXING:  cpu time    0.0020: real time    0.0021
    --------------------------------------------
      LOOP:  cpu time    7.9178: real time    7.9966

 eigenvalue-minimisations  : 12000
 total energy-change (2. order) : 0.2103337E-01  (-0.1124227E-01)
 number of electron     105.0000000 magnetization      -0.1174455
 augmentation part       13.0358863 magnetization      -0.1149731

 Broyden mixing:
  rms(total) = 0.99363E-01    rms(broyden)= 0.99363E-01
  rms(prec ) = 0.13004E+00
  weight for this iteration     100.00

 eigenvalues of (default mixing * dielectric matrix)
  average eigenvalue GAMMA=   3.4778
  9.1305  4.3216  2.8953  2.5460  0.9868  0.9868

 Free energy of the ion-electron system (eV)
  ---------------------------------------------------
  alpha Z        PSCENC =       590.10286658
  Ewald energy   TEWEN  =     -6473.88748535
  -Hartree energ DENC   =     -1771.51924954
  -exchange      EXHF   =         0.00000000
  -V(xc)+E(xc)   XCENC  =       137.68172450
  PAW double counting   =     12007.76351287   -12157.45578538
  entropy T*S    EENTRO =        -0.00834959
  eigenvalues    EBANDS =      -806.17883012
  atomic energy  EATOM  =      8394.63709520
  Solvation  Ediel_sol  =         0.00000000
  ---------------------------------------------------
  free energy    TOTEN  =       -78.86450084 eV

  energy without entropy =      -78.85615125  energy(sigma->0) =      -78.86032604


--------------------------------------------------------------------------------------------------------




----------------------------------------- Iteration    1(  12)  ---------------------------------------


    POTLOK:  cpu time    0.0950: real time    0.0956
    SETDIJ:  cpu time    0.1750: real time    0.1761
     EDDAV:  cpu time    7.6278: real time    7.6433
       DOS:  cpu time    0.0030: real time    0.0031
    CHARGE:  cpu time    0.4299: real time    0.4307
    MIXING:  cpu time    0.0010: real time    0.0016
    --------------------------------------------
      LOOP:  cpu time    8.3347: real time    8.3637

 eigenvalue-minimisations  : 12852
 total energy-change (2. order) :-0.1490397E-02  (-0.4757843E-02)
 number of electron     105.0000000 magnetization      -0.0960613
 augmentation part       12.9832607 magnetization      -0.0855860

 Broyden mixing:
  rms(total) = 0.39477E-01    rms(broyden)= 0.39477E-01
  rms(prec ) = 0.51335E-01
  weight for this iteration     100.00

 eigenvalues of (default mixing * dielectric matrix)
  average eigenvalue GAMMA=   3.2007
  9.4685  4.2354  3.1525  2.5307  1.0470  1.0470  0.9234

 Free energy of the ion-electron system (eV)
  ---------------------------------------------------
  alpha Z        PSCENC =       590.10286658
  Ewald energy   TEWEN  =     -6473.88748535
  -Hartree energ DENC   =     -1773.39970057
  -exchange      EXHF   =         0.00000000
  -V(xc)+E(xc)   XCENC  =       137.76437136
  PAW double counting   =     12145.09046581   -12294.71263851
  entropy T*S    EENTRO =        -0.00837506
  eigenvalues    EBANDS =      -804.45259070
  atomic energy  EATOM  =      8394.63709520
  Solvation  Ediel_sol  =         0.00000000
  ---------------------------------------------------
  free energy    TOTEN  =       -78.86599123 eV

  energy without entropy =      -78.85761618  energy(sigma->0) =      -78.86180370


--------------------------------------------------------------------------------------------------------




----------------------------------------- Iteration    1(  13)  ---------------------------------------


    POTLOK:  cpu time    0.0950: real time    0.0960
    SETDIJ:  cpu time    0.1760: real time    0.1762
     EDDAV:  cpu time    7.0359: real time    7.0488
       DOS:  cpu time    0.0030: real time    0.0031
    CHARGE:  cpu time    0.4279: real time    0.4297
    MIXING:  cpu time    0.0010: real time    0.0017
    --------------------------------------------
      LOOP:  cpu time    7.7438: real time    7.7698

 eigenvalue-minimisations  : 12000
 total energy-change (2. order) :-0.1114191E-02  (-0.4419924E-03)
 number of electron     105.0000000 magnetization      -0.0709370
 augmentation part       12.9863099 magnetization      -0.0591220

 Broyden mixing:
  rms(total) = 0.28947E-01    rms(broyden)= 0.28947E-01
  rms(prec ) = 0.33574E-01
  weight for this iteration     100.00

 eigenvalues of (default mixing * dielectric matrix)
  average eigenvalue GAMMA=   3.2130
  9.5955  4.6211  3.7888  2.7793  1.7869  1.2267  0.9530  0.9530

 Free energy of the ion-electron system (eV)
  ---------------------------------------------------
  alpha Z        PSCENC =       590.10286658
  Ewald energy   TEWEN  =     -6473.88748535
  -Hartree energ DENC   =     -1773.08099560
  -exchange      EXHF   =         0.00000000
  -V(xc)+E(xc)   XCENC  =       137.76835848
  PAW double counting   =     12184.85723294   -12334.48638501
  entropy T*S    EENTRO =        -0.00836280
  eigenvalues    EBANDS =      -804.76942985
  atomic energy  EATOM  =      8394.63709520
  Solvation  Ediel_sol  =         0.00000000
  ---------------------------------------------------
  free energy    TOTEN  =       -78.86710542 eV

  energy without entropy =      -78.85874262  energy(sigma->0) =      -78.86292402


--------------------------------------------------------------------------------------------------------




----------------------------------------- Iteration    1(  14)  ---------------------------------------


    POTLOK:  cpu time    0.0940: real time    0.0954
    SETDIJ:  cpu time    0.1750: real time    0.1759
     EDDAV:  cpu time    7.2699: real time    7.2852
       DOS:  cpu time    0.0030: real time    0.0031
    CHARGE:  cpu time    0.4289: real time    0.4304
    MIXING:  cpu time    0.0010: real time    0.0018
    --------------------------------------------
      LOOP:  cpu time    7.9768: real time    8.0062

 eigenvalue-minimisations  : 12624
 total energy-change (2. order) :-0.1132650E-02  (-0.1949942E-03)
 number of electron     105.0000000 magnetization      -0.0225717
 augmentation part       12.9912492 magnetization      -0.0120220

 Broyden mixing:
  rms(total) = 0.15373E-01    rms(broyden)= 0.15373E-01
  rms(prec ) = 0.17601E-01
  weight for this iteration     100.00

 eigenvalues of (default mixing * dielectric matrix)
  average eigenvalue GAMMA=   3.0910
  9.5765  5.1993  3.6365  2.6820  2.3578  1.1943  1.1943  0.9892  0.9892

 Free energy of the ion-electron system (eV)
  ---------------------------------------------------
  alpha Z        PSCENC =       590.10286658
  Ewald energy   TEWEN  =     -6473.88748535
  -Hartree energ DENC   =     -1772.92826241
  -exchange      EXHF   =         0.00000000
  -V(xc)+E(xc)   XCENC  =       137.77227545
  PAW double counting   =     12221.30413549   -12370.89187834
  entropy T*S    EENTRO =        -0.00835720
  eigenvalues    EBANDS =      -804.96862748
  atomic energy  EATOM  =      8394.63709520
  Solvation  Ediel_sol  =         0.00000000
  ---------------------------------------------------
  free energy    TOTEN  =       -78.86823807 eV

  energy without entropy =      -78.85988087  energy(sigma->0) =      -78.86405947


--------------------------------------------------------------------------------------------------------




----------------------------------------- Iteration    1(  15)  ---------------------------------------


    POTLOK:  cpu time    0.0950: real time    0.0951
    SETDIJ:  cpu time    0.1750: real time    0.1762
     EDDAV:  cpu time    6.6570: real time    6.6686
       DOS:  cpu time    0.0040: real time    0.0031
    CHARGE:  cpu time    0.4279: real time    0.4293
    MIXING:  cpu time    0.0020: real time    0.0020
    --------------------------------------------
      LOOP:  cpu time    7.3639: real time    7.3876

 eigenvalue-minimisations  : 11028
 total energy-change (2. order) :-0.2618191E-03  (-0.5393495E-04)
 number of electron     105.0000000 magnetization       0.0109653
 augmentation part       12.9937603 magnetization       0.0167132

 Broyden mixing:
  rms(total) = 0.11131E-01    rms(broyden)= 0.11131E-01
  rms(prec ) = 0.13340E-01
  weight for this iteration     100.00

 eigenvalues of (default mixing * dielectric matrix)
  average eigenvalue GAMMA=   3.2909
  9.8484  7.0529  4.3257  3.2064  2.6874  1.6846  1.2429  0.9937  0.9937  0.8737

 Free energy of the ion-electron system (eV)
  ---------------------------------------------------
  alpha Z        PSCENC =       590.10286658
  Ewald energy   TEWEN  =     -6473.88748535
  -Hartree energ DENC   =     -1772.87210709
  -exchange      EXHF   =         0.00000000
  -V(xc)+E(xc)   XCENC  =       137.77473833
  PAW double counting   =     12230.87514841   -12380.42941232
  entropy T*S    EENTRO =        -0.00835340
  eigenvalues    EBANDS =      -805.06099027
  atomic energy  EATOM  =      8394.63709520
  Solvation  Ediel_sol  =         0.00000000
  ---------------------------------------------------
  free energy    TOTEN  =       -78.86849989 eV

  energy without entropy =      -78.86014650  energy(sigma->0) =      -78.86432320


--------------------------------------------------------------------------------------------------------




----------------------------------------- Iteration    1(  16)  ---------------------------------------


    POTLOK:  cpu time    0.0940: real time    0.0946
    SETDIJ:  cpu time    0.1760: real time    0.1758
     EDDAV:  cpu time    6.6440: real time    6.6584
       DOS:  cpu time    0.0030: real time    0.0030
    --------------------------------------------
      LOOP:  cpu time    6.9189: real time    6.9463

 eigenvalue-minimisations  : 11016
 total energy-change (2. order) :-0.2040803E-04  (-0.3148131E-04)
 number of electron     105.0000000 magnetization       0.0109653
 augmentation part       12.9937603 magnetization       0.0167132

 Free energy of the ion-electron system (eV)
  ---------------------------------------------------
  alpha Z        PSCENC =       590.10286658
  Ewald energy   TEWEN  =     -6473.88748535
  -Hartree energ DENC   =     -1773.00460157
  -exchange      EXHF   =         0.00000000
  -V(xc)+E(xc)   XCENC  =       137.78339766
  PAW double counting   =     12256.77840093   -12406.32103853
  entropy T*S    EENTRO =        -0.00835358
  eigenvalues    EBANDS =      -804.94880162
  atomic energy  EATOM  =      8394.63709520
  Solvation  Ediel_sol  =         0.00000000
  ---------------------------------------------------
  free energy    TOTEN  =       -78.86852030 eV

  energy without entropy =      -78.86016672  energy(sigma->0) =      -78.86434351


--------------------------------------------------------------------------------------------------------




 average (electrostatic) potential at core
  the test charge radii are     1.1760  1.0314  1.0808
  (the norm of the test charge is              1.0000)
       1 -37.2843       2 -37.2843       3 -37.2843       4 -37.2843       5 -65.1395
       6 -52.4982       7 -52.4982       8 -52.4982       9 -52.4982      10 -52.7655
      11 -52.7655      12 -52.7655      13 -52.7655
 
 
 
 E-fermi :   6.3478     XC(G=0): -10.9716     alpha+bet :-11.6017


 spin component 1

 k-point     1 :       0.0000    0.0000    0.0000
  band No.  band energies     occupation 
      1     -29.3992      1.00000
      2     -29.1205      1.00000
      3     -29.1205      1.00000
      4     -29.1205      1.00000
      5     -29.0005      1.00000
      6     -29.0005      1.00000
      7     -28.8115      1.00000
      8     -28.8115      1.00000
      9     -28.8115      1.00000
     10     -28.7967      1.00000
     11     -28.7967      1.00000
     12     -28.7967      1.00000
     13     -11.6868      1.00000
     14     -11.6868      1.00000
     15     -11.6868      1.00000
     16     -11.4776      1.00000
     17     -11.4776      1.00000
     18      -9.5409      1.00000
     19      -7.7391      1.00000
     20      -7.4216      1.00000
     21      -7.4216      1.00000
     22      -7.4216      1.00000
     23      -7.1826      1.00000
     24      -7.1826      1.00000
     25      -7.1826      1.00000
     26      -2.8556      1.00000
     27      -1.0354      1.00000
     28      -1.0354      1.00000
     29      -1.0354      1.00000
     30      -0.4049      1.00000
     31       0.5987      1.00000
     32       0.5987      1.00000
     33       2.4556      1.00000
     34       2.4556      1.00000
     35       2.4556      1.00000
     36       2.6822      1.00000
     37       2.6822      1.00000
     38       2.6822      1.00000
     39       2.9558      1.00000
     40       2.9558      1.00000
     41       3.0697      1.00000
     42       3.0697      1.00000
     43       3.0697      1.00000
     44       3.4079      1.00000
     45       3.6432      1.00000
     46       3.6432      1.00000
     47       3.6432      1.00000
     48       4.8639      1.00000
     49       4.8639      1.00000
     50       5.0320      1.00000
     51       5.0320      1.00000
     52       5.0320      1.00000
     53       6.3941      0.09539
     54       6.3941      0.09539
     55       6.3941      0.09539
     56       7.1286      0.00000
     57       8.6840      0.00000
     58       8.6840      0.00000
     59       8.6840      0.00000
     60       8.9514      0.00000
     61       8.9514      0.00000
     62       8.9514      0.00000
     63       9.4132      0.00000
     64       9.4132      0.00000
     65       9.4132      0.00000
     66       9.8512      0.00000
     67       9.8512      0.00000
     68       9.8584      0.00000
     69       9.8584      0.00000
     70       9.8584      0.00000
     71      10.1358      0.00000
     72      11.2489      0.00000

 k-point     2 :       0.1111    0.0000    0.0000
  band No.  band energies     occupation 
      1     -29.3977      1.00000
      2     -29.1202      1.00000
      3     -29.1198      1.00000
      4     -29.1198      1.00000
      5     -29.0003      1.00000
      6     -29.0003      1.00000
      7     -28.8122      1.00000
      8     -28.8122      1.00000
      9     -28.8115      1.00000
     10     -28.7988      1.00000
     11     -28.7970      1.00000
     12     -28.7970      1.00000
     13     -11.6873      1.00000
     14     -11.6867      1.00000
     15     -11.6867      1.00000
     16     -11.4776      1.00000
     17     -11.4776      1.00000
     18      -9.4942      1.00000
     19      -7.7709      1.00000
     20      -7.4730      1.00000
     21      -7.4241      1.00000
     22      -7.4241      1.00000
     23      -7.1994      1.00000
     24      -7.1821      1.00000
     25      -7.1821      1.00000
     26      -2.7557      1.00000
     27      -0.9688      1.00000
     28      -0.9688      1.00000
     29      -0.9105      1.00000
     30      -0.3945      1.00000
     31       0.5956      1.00000
     32       0.5956      1.00000
     33       2.1446      1.00000
     34       2.3682      1.00000
     35       2.3682      1.00000
     36       2.6245      1.00000
     37       2.6245      1.00000
     38       2.6357      1.00000
     39       2.9208      1.00000
     40       2.9208      1.00000
     41       2.9971      1.00000
     42       3.1607      1.00000
     43       3.1607      1.00000
     44       3.5175      1.00000
     45       3.5175      1.00000
     46       3.5307      1.00000
     47       3.7334      1.00000
     48       4.7706      1.00000
     49       4.8893      1.00000
     50       4.8893      1.00000
     51       5.0742      1.00000
     52       5.0742      1.00000
     53       6.4450      0.00300
     54       6.4450      0.00300
     55       6.4467      0.00259
     56       7.1991      0.00000
     57       8.6160      0.00000
     58       8.6459      0.00000
     59       8.6459      0.00000
     60       9.0578      0.00000
     61       9.0578      0.00000
     62       9.1974      0.00000
     63       9.2456      0.00000
     64       9.2456      0.00000
     65       9.4287      0.00000
     66       9.6518      0.00000
     67       9.6518      0.00000
     68       9.8130      0.00000
     69      10.3678      0.00000
     70      10.3678      0.00000
     71      10.4216      0.00000
     72      11.1645      0.00000

 k-point     3 :       0.2222    0.0000    0.0000
  band No.  band energies     occupation 
      1     -29.3939      1.00000
      2     -29.1193      1.00000
      3     -29.1179      1.00000
      4     -29.1179      1.00000
      5     -28.9999      1.00000
      6     -28.9999      1.00000
      7     -28.8140      1.00000
      8     -28.8140      1.00000
      9     -28.8115      1.00000
     10     -28.8041      1.00000
     11     -28.7976      1.00000
     12     -28.7976      1.00000
     13     -11.6887      1.00000
     14     -11.6866      1.00000
     15     -11.6866      1.00000
     16     -11.4776      1.00000
     17     -11.4776      1.00000
     18      -9.3571      1.00000
     19      -7.8729      1.00000
     20      -7.6432      1.00000
     21      -7.4306      1.00000
     22      -7.4306      1.00000
     23      -7.1906      1.00000
     24      -7.1811      1.00000
     25      -7.1811      1.00000
     26      -2.4890      1.00000
     27      -0.7767      1.00000
     28      -0.7767      1.00000
     29      -0.5920      1.00000
     30      -0.3294      1.00000
     31       0.5830      1.00000
     32       0.5830      1.00000
     33       1.5264      1.00000
     34       2.0492      1.00000
     35       2.0492      1.00000
     36       2.5215      1.00000
     37       2.6081      1.00000
     38       2.6081      1.00000
     39       2.8300      1.00000
     40       2.8300      1.00000
     41       2.8655      1.00000
     42       3.1335      1.00000
     43       3.1335      1.00000
     44       3.5382      1.00000
     45       3.5398      1.00000
     46       3.5398      1.00000
     47       3.9105      1.00000
     48       4.3058      1.00000
     49       4.7697      1.00000
     50       4.7697      1.00000
     51       5.2498      1.00000
     52       5.2498      1.00000
     53       6.5023      0.00001
     54       6.5412      0.00000
     55       6.5412      0.00000
     56       7.2899      0.00000
     57       8.5588      0.00000
     58       8.5588      0.00000
     59       8.6953      0.00000
     60       8.9492      0.00000
     61       8.9492      0.00000
     62       9.3410      0.00000
     63       9.3410      0.00000
     64       9.4765      0.00000
     65       9.6345      0.00000
     66       9.8722      0.00000
     67       9.8923      0.00000
     68       9.8923      0.00000
     69      10.5720      0.00000
     70      10.5720      0.00000
     71      10.8708      0.00000
     72      11.0037      0.00000

 k-point     4 :       0.3333    0.0000    0.0000
  band No.  band energies     occupation 
      1     -29.3895      1.00000
      2     -29.1183      1.00000
      3     -29.1158      1.00000
      4     -29.1158      1.00000
      5     -28.9993      1.00000
      6     -28.9993      1.00000
      7     -28.8163      1.00000
      8     -28.8163      1.00000
      9     -28.8115      1.00000
     10     -28.8103      1.00000
     11     -28.7982      1.00000
     12     -28.7982      1.00000
     13     -11.6902      1.00000
     14     -11.6865      1.00000
     15     -11.6865      1.00000
     16     -11.4776      1.00000
     17     -11.4776      1.00000
     18      -9.1401      1.00000
     19      -8.1179      1.00000
     20      -7.7764      1.00000
     21      -7.4379      1.00000
     22      -7.4379      1.00000
     23      -7.1798      1.00000
     24      -7.1798      1.00000
     25      -7.1609      1.00000
     26      -2.1359      1.00000
     27      -0.4871      1.00000
     28      -0.4871      1.00000
     29      -0.4478      1.00000
     30       0.0692      1.00000
     31       0.5411      1.00000
     32       0.5411      1.00000
     33       0.9355      1.00000
     34       1.6451      1.00000
     35       1.6451      1.00000
     36       2.3400      1.00000
     37       2.4697      1.00000
     38       2.4697      1.00000
     39       2.7559      1.00000
     40       2.7870      1.00000
     41       2.7870      1.00000
     42       2.9790      1.00000
     43       3.1461      1.00000
     44       3.1461      1.00000
     45       3.7245      1.00000
     46       3.7245      1.00000
     47       4.0734      1.00000
     48       4.2774      1.00000
     49       4.5646      1.00000
     50       4.5646      1.00000
     51       5.3897      1.00000
     52       5.3897      1.00000
     53       6.4695      0.00029
     54       6.6063      0.00000
     55       6.6063      0.00000
     56       7.2893      0.00000
     57       8.4836      0.00000
     58       8.4837      0.00000
     59       8.8428      0.00000
     60       8.9765      0.00000
     61       8.9765      0.00000
     62       9.3697      0.00000
     63       9.3697      0.00000
     64       9.5548      0.00000
     65       9.8983      0.00000
     66      10.1241      0.00000
     67      10.1241      0.00000
     68      10.4892      0.00000
     69      10.5673      0.00000
     70      10.6831      0.00000
     71      10.6831      0.00000
     72      11.3842      0.00000

 k-point     5 :       0.4444    0.0000    0.0000
  band No.  band energies     occupation 
      1     -29.3866      1.00000
      2     -29.1175      1.00000
      3     -29.1144      1.00000
[...]
     24      -7.1291      1.00000
     25      -7.1076      1.00000
     26      -1.3488      1.00000
     27      -0.3757      1.00000
     28      -0.2322      1.00000
     29       0.2816      1.00000
     30       0.5748      1.00000
     31       0.7497      1.00000
     32       0.7699      1.00000
     33       1.0640      1.00000
     34       1.1904      1.00000
     35       1.3331      1.00000
     36       1.6864      1.00000
     37       1.7973      1.00000
     38       2.1382      1.00000
     39       2.2957      1.00000
     40       2.4546      1.00000
     41       2.6031      1.00000
     42       2.8139      1.00000
     43       2.9039      1.00000
     44       2.9708      1.00000
     45       3.3956      1.00000
     46       3.5502      1.00000
     47       3.6449      1.00000
     48       3.9099      1.00000
     49       4.1232      1.00000
     50       5.0430      1.00000
     51       5.5755      1.00000
     52       5.7974      1.00000
     53       6.3016      0.90432
     54       6.5301      0.00000
     55       6.8257      0.00000
     56       8.1310      0.00000
     57       8.5421      0.00000
     58       8.6267      0.00000
     59       8.6792      0.00000
     60       9.0398      0.00000
     61       9.1861      0.00000
     62       9.2629      0.00000
     63       9.3322      0.00000
     64       9.4268      0.00000
     65       9.9755      0.00000
     66      10.1791      0.00000
     67      10.2011      0.00000
     68      10.4578      0.00000
     69      11.0322      0.00000
     70      11.1719      0.00000
     71      11.7992      0.00000
     72      12.1758      0.00000


--------------------------------------------------------------------------------------------------------


 soft charge-density along one line, spin component           1
         0         1         2         3         4         5         6         7         8         9
 total charge-density along one line
 
 soft charge-density along one line, spin component           2
         0         1         2         3         4         5         6         7         8         9
 total charge-density along one line
 
 pseudopotential strength for first ion, spin component:           1
-31.959   0.013  -0.013   7.924  -0.010   0.010   0.010  -0.010
  0.013 -31.959   0.013  -0.010   7.924  -0.010  -0.000   0.010
 -0.013   0.013 -31.959   0.010  -0.010   7.924   0.010  -0.000
  7.924  -0.010   0.010   6.153   0.004  -0.004  -0.004   0.004
 -0.010   7.924  -0.010   0.004   6.153   0.004   0.000  -0.004
  0.010  -0.010   7.924  -0.004   0.004   6.153  -0.004   0.000
  0.010  -0.000   0.010  -0.004   0.000  -0.004  -6.443  -0.014
 -0.010   0.010  -0.000   0.004  -0.004   0.000  -0.014  -6.443
 -0.002  -0.004  -0.002  -0.000  -0.001  -0.000   0.005   0.003
 -0.000   0.010  -0.010   0.000  -0.004   0.004  -0.014   0.014
 -0.003   0.000   0.003  -0.001  -0.000   0.001   0.000  -0.005
  0.012  -0.000   0.012  -0.005   0.000  -0.005  -7.859  -0.016
 -0.012   0.012  -0.000   0.005  -0.005   0.000  -0.016  -7.859
 -0.002  -0.004  -0.002  -0.000  -0.001  -0.000   0.007   0.003
 -0.000   0.012  -0.012   0.000  -0.005   0.005  -0.016   0.016
 -0.004   0.000   0.004  -0.001  -0.000   0.001   0.000  -0.006
  0.004  -0.004   0.004  -0.004   0.004  -0.004   0.004  -0.004
  0.008  -0.008   0.008  -0.008   0.008  -0.008   0.007  -0.007
 pseudopotential strength for first ion, spin component:           2
-31.959   0.013  -0.013   7.925  -0.010   0.010   0.010  -0.010
  0.013 -31.959   0.013  -0.010   7.925  -0.010  -0.000   0.010
 -0.013   0.013 -31.959   0.010  -0.010   7.925   0.010  -0.000
  7.925  -0.010   0.010   6.153   0.004  -0.004  -0.004   0.004
 -0.010   7.925  -0.010   0.004   6.153   0.004   0.000  -0.004
  0.010  -0.010   7.925  -0.004   0.004   6.153  -0.004   0.000
  0.010  -0.000   0.010  -0.004   0.000  -0.004  -6.444  -0.014
 -0.010   0.010  -0.000   0.004  -0.004   0.000  -0.014  -6.444
 -0.002  -0.004  -0.002  -0.000  -0.001  -0.000   0.005   0.003
 -0.000   0.010  -0.010   0.000  -0.004   0.004  -0.014   0.014
 -0.003   0.000   0.003  -0.001  -0.000   0.001  -0.000  -0.005
  0.012  -0.000   0.012  -0.005   0.000  -0.005  -7.860  -0.016
 -0.012   0.012  -0.000   0.005  -0.005   0.000  -0.016  -7.860
 -0.002  -0.004  -0.002  -0.000  -0.001  -0.000   0.007   0.003
 -0.000   0.012  -0.012   0.000  -0.005   0.005  -0.016   0.016
 -0.004   0.000   0.004  -0.001  -0.000   0.001  -0.000  -0.006
  0.004  -0.004   0.004  -0.004   0.004  -0.004   0.004  -0.004
  0.008  -0.008   0.008  -0.008   0.008  -0.008   0.007  -0.007
 total augmentation occupancy for first ion, spin component:           1
  1.996  -0.000   0.000  -0.020  -0.000   0.000   0.014  -0.014  -0.020  -0.002  -0.034  -0.013   0.013   0.017   0.002   0.030
 -0.000   1.996  -0.000  -0.000  -0.020  -0.000  -0.002   0.014  -0.039   0.014  -0.000   0.002  -0.013   0.035  -0.013   0.000
  0.000  -0.000   1.996   0.000  -0.000  -0.020   0.014  -0.002  -0.020  -0.014   0.034  -0.013   0.002   0.017   0.013  -0.030
 -0.020  -0.000   0.000   0.174  -0.003   0.003   0.002  -0.002  -0.115  -0.022  -0.199   0.006  -0.006   0.069   0.015   0.120
 -0.000  -0.020  -0.000  -0.003   0.174  -0.003  -0.022   0.002  -0.229   0.002   0.000   0.015   0.006   0.138   0.006  -0.000
  0.000  -0.000  -0.020   0.003  -0.003   0.174   0.002  -0.022  -0.115  -0.002   0.199   0.006   0.015   0.069  -0.006  -0.120
  0.014  -0.002   0.014   0.002  -0.022   0.002   4.711  -0.158   0.031  -0.158   0.000  -2.446   0.145  -0.034   0.145   0.000
 -0.014   0.014  -0.002  -0.002   0.002  -0.022  -0.158   4.711   0.015   0.158  -0.027   0.145  -2.446  -0.017  -0.145   0.029
 -0.020  -0.039  -0.020  -0.115  -0.229  -0.115   0.031   0.015   8.311   0.015   0.000  -0.032  -0.016  -5.039  -0.016  -0.000
 -0.002   0.014  -0.014  -0.022   0.002  -0.002  -0.158   0.158   0.015   4.711   0.027   0.145  -0.145  -0.017  -2.446  -0.029
 -0.034  -0.000   0.034  -0.199   0.000   0.199   0.000  -0.027  -0.000   0.027   8.311   0.000   0.028   0.000  -0.028  -5.039
 -0.013   0.002  -0.013   0.006   0.015   0.006  -2.446   0.145  -0.032   0.145   0.000   1.339  -0.101   0.028  -0.101  -0.000
  0.013  -0.013   0.002  -0.006   0.006   0.015   0.145  -2.446  -0.016  -0.145   0.028  -0.101   1.339   0.014   0.101  -0.024
  0.017   0.035   0.017   0.069   0.138   0.069  -0.034  -0.017  -5.039  -0.017   0.000   0.028   0.014   3.105   0.014   0.000
  0.002  -0.013   0.013   0.015   0.006  -0.006   0.145  -0.145  -0.016  -2.446  -0.028  -0.101   0.101   0.014   1.339   0.024
  0.030   0.000  -0.030   0.120  -0.000  -0.120   0.000   0.029  -0.000  -0.029  -5.039   0.000  -0.024   0.000   0.024   3.105
  0.030  -0.030   0.030   0.048  -0.048   0.048   0.018  -0.018   0.000  -0.018   0.000  -0.024   0.024  -0.000   0.024  -0.000
 -0.018   0.018  -0.018  -0.004   0.004  -0.004   0.022  -0.022  -0.000  -0.022   0.000  -0.009   0.009   0.000   0.009  -0.000
 total augmentation occupancy for first ion, spin component:           2
 -0.000   0.000  -0.000  -0.000   0.000  -0.000   0.000  -0.000  -0.000  -0.000  -0.000  -0.000   0.000   0.000   0.000   0.000
  0.000  -0.000   0.000   0.000  -0.000   0.000  -0.000   0.000  -0.000   0.000   0.000   0.000  -0.000   0.000  -0.000   0.000
 -0.000   0.000  -0.000  -0.000   0.000  -0.000   0.000  -0.000  -0.000  -0.000   0.000  -0.000   0.000   0.000   0.000  -0.000
 -0.000   0.000  -0.000   0.000   0.000  -0.000  -0.000   0.000  -0.000  -0.000  -0.000  -0.000   0.000   0.000   0.000   0.000
  0.000  -0.000   0.000   0.000   0.000   0.000  -0.000  -0.000  -0.000  -0.000  -0.000   0.000  -0.000   0.000  -0.000   0.000
 -0.000   0.000  -0.000  -0.000   0.000   0.000  -0.000  -0.000  -0.000   0.000   0.000  -0.000   0.000   0.000   0.000  -0.000
  0.000  -0.000   0.000  -0.000  -0.000  -0.000   0.001  -0.000  -0.000  -0.000  -0.000  -0.001   0.000   0.000   0.000   0.000
 -0.000   0.000  -0.000   0.000  -0.000  -0.000  -0.000   0.001  -0.000   0.000   0.000   0.000  -0.001   0.000  -0.000  -0.000
 -0.000  -0.000  -0.000  -0.000  -0.000  -0.000  -0.000  -0.000   0.001  -0.000   0.000   0.000   0.000  -0.001   0.000   0.000
 -0.000   0.000  -0.000  -0.000  -0.000   0.000  -0.000   0.000  -0.000   0.001  -0.000   0.000  -0.000   0.000  -0.001   0.000
 -0.000   0.000   0.000  -0.000   0.000   0.000  -0.000   0.000   0.000  -0.000   0.001   0.000  -0.000   0.000   0.000  -0.001
 -0.000   0.000  -0.000  -0.000   0.000  -0.000  -0.001   0.000   0.000   0.000  -0.000   0.001  -0.000  -0.000  -0.000   0.000
  0.000  -0.000   0.000   0.000  -0.000   0.000   0.000  -0.001   0.000  -0.000  -0.000  -0.000   0.001  -0.000   0.000   0.000
  0.000   0.000   0.000   0.000   0.000   0.000   0.000   0.000  -0.001   0.000   0.000  -0.000  -0.000   0.001  -0.000   0.000
  0.000  -0.000   0.000   0.000  -0.000   0.000   0.000  -0.000   0.000  -0.001   0.000  -0.000   0.000  -0.000   0.001  -0.000
  0.000   0.000  -0.000   0.000   0.000  -0.000   0.000  -0.000   0.000   0.000  -0.001   0.000   0.000   0.000  -0.000   0.001
 -0.000   0.000  -0.000  -0.000   0.000  -0.000   0.000  -0.000  -0.000  -0.000   0.000  -0.000   0.000   0.000   0.000   0.000
  0.000  -0.000   0.000   0.000  -0.000   0.000   0.000  -0.000   0.000  -0.000   0.000  -0.000   0.000  -0.000   0.000  -0.000


------------------------ aborting loop because EDIFF is reached ----------------------------------------


 


 total charge     
 
# of ion     s       p       d       tot
----------------------------------------
  1        0.318   6.213   2.347   8.879
  2        0.317   6.212   2.355   8.884
  3        0.315   6.207   2.474   8.997
  4        0.318   6.213   2.365   8.895
  5        0.878   0.869  10.108  11.856
  6        1.476   2.448   0.087   4.010
  7        1.475   2.443   0.085   4.003
  8        1.470   2.411   0.077   3.958
  9        1.474   2.442   0.086   4.001
 10        1.434   2.519   0.054   4.007
 11        1.436   2.507   0.055   3.998
 12        1.445   2.466   0.056   3.967
 13        1.436   2.511   0.054   4.000
------------------------------------------------
tot       13.793  45.460  20.203  79.456
 


 magnetization (x)
 
# of ion     s       p       d       tot
----------------------------------------
  1       -0.000  -0.000  -0.001  -0.001
  2       -0.000  -0.000  -0.001  -0.001
  3       -0.000  -0.000  -0.001  -0.001
  4       -0.000  -0.000  -0.001  -0.001
  5       -0.000  -0.000  -0.000  -0.000
  6       -0.000   0.000  -0.000   0.000
  7       -0.000   0.000  -0.000  -0.000
  8       -0.000   0.000  -0.000  -0.000
  9       -0.000   0.000  -0.000   0.000
 10       -0.000  -0.000  -0.000  -0.000
 11       -0.000  -0.000  -0.000  -0.000
 12       -0.000  -0.000  -0.000  -0.000
 13       -0.000  -0.000  -0.000  -0.000
------------------------------------------------
tot       -0.000  -0.000  -0.005  -0.005
 
    CHARGE:  cpu time    0.4289: real time    0.4300
    FORLOC:  cpu time    0.0040: real time    0.0069
    FORNL :  cpu time    2.0457: real time    2.0529
    STRESS:  cpu time    4.3313: real time    4.3558
    FORCOR:  cpu time    0.0920: real time    0.0937
    FORHAR:  cpu time    0.0150: real time    0.0166
    MIXING:  cpu time    0.0030: real time    0.0047
    OFIELD:  cpu time    0.0010: real time    0.0038

  FORCE on cell =-STRESS in cart. coord.  units (eV):
  Direction    XX          YY          ZZ          XY          YZ          ZX
  --------------------------------------------------------------------------------------
  Alpha Z   590.10287   590.10287   590.10287
  Ewald   -2157.96651 -2157.96651 -2157.96651     0.00000     0.00000     0.00000
  Hartree   591.07675   591.07675   591.07675     0.00000     0.00000     0.00000
  E(xc)    -450.83067  -450.83067  -450.83067     0.00000     0.00000     0.00000
  Local     -59.37790   -59.37790   -59.37790     0.00015     0.00015     0.00015
  n-local   167.83015   167.36711   172.96501     1.33464    -1.02894     0.62474
  augment   175.72080   175.72080   175.72080    -0.00013    -0.00013    -0.00013
  Kinetic  1175.64906  1178.53521  1157.97714     4.74639    -5.77610     4.03312
  Fock        0.00000     0.00000     0.00000     0.00000     0.00000     0.00000
  -------------------------------------------------------------------------------------
  Total      28.83324    28.83324    28.83324    -0.00000    -0.00000    -0.00000
  in kB     185.11685   185.11685   185.11685    -0.00000    -0.00000    -0.00000
  external pressure =      185.12 kB  Pullay stress =        0.00 kB


 VOLUME and BASIS-vectors are now :
 -----------------------------------------------------------------------------
  energy-cutoff  :      520.00
  volume of cell :      249.55
      direct lattice vectors                 reciprocal lattice vectors
     0.000000000  4.997000000  4.997000000    -0.100060036  0.100060036  0.100060036
     4.997000000  0.000000000  4.997000000     0.100060036 -0.100060036  0.100060036
     4.997000000  4.997000000  0.000000000     0.100060036  0.100060036 -0.100060036

  length of vectors
     7.066825171  7.066825171  7.066825171     0.173309066  0.173309066  0.173309066


 FORCES acting on ions
    electron-ion (+dipol)            ewald-force                    non-local-force                 convergence-correction
 -----------------------------------------------------------------------------------------------
   0.101E+03 0.101E+03 -.101E+03   -.100E+03 -.100E+03 0.100E+03   -.910E+00 -.910E+00 0.910E+00   -.170E-01 -.170E-01 0.170E-01
   0.101E+03 -.101E+03 0.101E+03   -.100E+03 0.100E+03 -.100E+03   -.910E+00 0.910E+00 -.910E+00   -.170E-01 0.170E-01 -.170E-01
   -.101E+03 0.101E+03 0.101E+03   0.100E+03 -.100E+03 -.100E+03   0.910E+00 -.910E+00 -.910E+00   0.170E-01 -.170E-01 -.170E-01
   -.101E+03 -.101E+03 -.101E+03   0.100E+03 0.100E+03 0.100E+03   0.910E+00 0.910E+00 0.910E+00   0.170E-01 0.170E-01 0.170E-01
   -.529E-06 -.529E-06 -.531E-06   0.280E-11 0.271E-11 0.276E-11   0.555E-16 0.139E-16 0.156E-16   -.276E-07 -.276E-07 -.276E-07
   -.118E+03 -.118E+03 0.118E+03   0.118E+03 0.118E+03 -.118E+03   0.202E+00 0.202E+00 -.202E+00   0.285E-01 0.285E-01 -.285E-01
   -.118E+03 0.118E+03 -.118E+03   0.118E+03 -.118E+03 0.118E+03   0.202E+00 -.202E+00 0.202E+00   0.285E-01 -.285E-01 0.285E-01
   0.118E+03 -.118E+03 -.118E+03   -.118E+03 0.118E+03 0.118E+03   -.202E+00 0.202E+00 0.202E+00   -.285E-01 0.285E-01 0.285E-01
   0.118E+03 0.118E+03 0.118E+03   -.118E+03 -.118E+03 -.118E+03   -.202E+00 -.202E+00 -.202E+00   -.285E-01 -.285E-01 -.285E-01
   -.773E+01 -.773E+01 0.773E+01   0.846E+01 0.846E+01 -.846E+01   -.658E+00 -.658E+00 0.658E+00   -.110E-01 -.110E-01 0.110E-01
   -.773E+01 0.773E+01 -.773E+01   0.846E+01 -.846E+01 0.846E+01   -.658E+00 0.658E+00 -.658E+00   -.110E-01 0.110E-01 -.110E-01
   0.773E+01 -.773E+01 -.773E+01   -.846E+01 0.846E+01 0.846E+01   0.658E+00 -.658E+00 -.658E+00   0.110E-01 -.110E-01 -.110E-01
   0.773E+01 0.773E+01 0.773E+01   -.846E+01 -.846E+01 -.846E+01   0.658E+00 0.658E+00 0.658E+00   0.110E-01 0.110E-01 0.110E-01
 -----------------------------------------------------------------------------------------------
   -.372E-06 -.372E-06 -.391E-06   -.657E-13 -.142E-13 0.444E-13   -.167E-14 -.133E-14 -.155E-14   -.454E-07 -.454E-07 -.454E-07
 
 
 POSITION                                       TOTAL-FORCE (eV/Angst)
 -----------------------------------------------------------------------------------
      3.96162      3.96162      6.03238        -0.245007     -0.245007      0.245007
      3.96162      6.03238      3.96162        -0.245007      0.245007     -0.245007
      6.03238      3.96162      3.96162         0.245007     -0.245007     -0.245007
      6.03238      6.03238      6.03238         0.245007      0.245007      0.245007
      0.00000      0.00000      0.00000         0.000000      0.000000      0.000000
      6.39616      6.39616      3.59784         0.542354      0.542354     -0.542354
      6.39616      3.59784      6.39616         0.542354     -0.542354      0.542354
      3.59784      6.39616      6.39616        -0.542354      0.542354      0.542354
      3.59784      3.59784      3.59784        -0.542354     -0.542354     -0.542354
      6.33020      6.33020      8.66080         0.055262      0.055262     -0.055262
      6.33020      8.66080      6.33020         0.055262     -0.055262      0.055262
      8.66080      6.33020      6.33020        -0.055262      0.055262      0.055262
      8.66080      8.66080      8.66080        -0.055262     -0.055262     -0.055262
 -----------------------------------------------------------------------------------
    total drift:                               -0.000000     -0.000000     -0.000000


--------------------------------------------------------------------------------------------------------



  FREE ENERGIE OF THE ION-ELECTRON SYSTEM (eV)
  ---------------------------------------------------
  free  energy   TOTEN  =       -78.86852030 eV

  energy  without entropy=      -78.86016672  energy(sigma->0) =      -78.86434351
 


--------------------------------------------------------------------------------------------------------


    POTLOK:  cpu time    0.2740: real time    0.2781


--------------------------------------------------------------------------------------------------------


     LOOP+:  cpu time  136.8532: real time  138.3214
    4ORBIT:  cpu time    0.0000: real time    0.0000
 


 total charge     
 
# of ion     s       p       d       tot
----------------------------------------
  1        0.318   6.213   2.347   8.879
  2        0.317   6.212   2.355   8.884
  3        0.315   6.207   2.474   8.997
  4        0.318   6.213   2.365   8.895
  5        0.878   0.869  10.108  11.856
  6        1.476   2.448   0.087   4.010
  7        1.475   2.443   0.085   4.003
  8        1.470   2.411   0.077   3.958
  9        1.474   2.442   0.086   4.001
 10        1.434   2.519   0.054   4.007
 11        1.436   2.507   0.055   3.998
 12        1.445   2.466   0.056   3.967
 13        1.436   2.511   0.054   4.000
------------------------------------------------
tot       13.793  45.460  20.203  79.456
 


 magnetization (x)
 
# of ion     s       p       d       tot
----------------------------------------
  1       -0.000  -0.000  -0.001  -0.001
  2       -0.000  -0.000  -0.001  -0.001
  3       -0.000  -0.000  -0.001  -0.001
  4       -0.000  -0.000  -0.001  -0.001
  5       -0.000  -0.000  -0.000  -0.000
  6       -0.000   0.000  -0.000   0.000
  7       -0.000   0.000  -0.000  -0.000
  8       -0.000   0.000  -0.000  -0.000
  9       -0.000   0.000  -0.000   0.000
 10       -0.000  -0.000  -0.000  -0.000
 11       -0.000  -0.000  -0.000  -0.000
 12       -0.000  -0.000  -0.000  -0.000
 13       -0.000  -0.000  -0.000  -0.000
------------------------------------------------
tot       -0.000  -0.000  -0.005  -0.005
 

 total amount of memory used by VASP on root node    53097. kBytes
========================================================================

   base      :      30000. kBytes
   nonl-proj :       8644. kBytes
   fftplans  :       3068. kBytes
   grid      :       3259. kBytes
   one-center:         62. kBytes
   wavefun   :       8064. kBytes
 
  
  
 General timing and accounting informations for this job:
 ========================================================
  
                  Total CPU time used (sec):      179.872
                            User time (sec):      146.903
                          System time (sec):       32.969
                         Elapsed time (sec):      182.630
  
                   Maximum memory used (kb):      182048.
                   Average memory used (kb):           0.
  
                          Minor page faults:       989265
                          Major page faults:          379
                 Voluntary context switches:         9966
