   8   8   1   0
  0.1531586E+02  0.5261559E-09  0.5261559E-09  0.5360907E-09  0.5000000E-16
  1.000000000000000E-004
  CAR 
 matgen-band                             
     18.63200291     -5.72296548  301      8.75868792      1.00000000
     -5.723  0.0000E+00  0.0000E+00
     -5.642  0.0000E+00  0.0000E+00
     -5.561  0.0000E+00  0.0000E+00
     -5.479  0.0000E+00  0.0000E+00
     -5.398  0.0000E+00  0.0000E+00
     -5.317  0.0000E+00  0.0000E+00
     -5.236  0.0000E+00  0.0000E+00
     -5.155  0.0000E+00  0.0000E+00
     -5.073  0.0000E+00  0.0000E+00
     -4.992  0.0000E+00  0.0000E+00
     -4.911  0.2486E-16  0.2019E-17
     -4.830  0.4851E-09  0.3938E-10
     -4.749  0.6768E-04  0.5494E-05
     -4.668  0.7223E-01  0.5869E-02
     -4.586  0.1167E+01  0.1006E+00
     -4.505  0.1247E+01  0.2018E+00
     -4.424  0.7516E+00  0.2628E+00
     -4.343  0.5944E+00  0.3111E+00
     -4.262  0.4908E+00  0.3509E+00
     -4.180  0.4734E+00  0.3894E+00
     -4.099  0.3824E+00  0.4204E+00
     -4.018  0.3937E+00  0.4524E+00
     -3.937  0.4359E+00  0.4878E+00
     -3.856  0.4364E+00  0.5232E+00
     -3.775  0.4425E+00  0.5591E+00
     -3.693  0.3894E+00  0.5907E+00
     -3.612  0.3297E+00  0.6175E+00
     -3.531  0.4155E+00  0.6512E+00
     -3.450  0.3434E+00  0.6791E+00
     -3.369  0.1240E+01  0.7798E+00
     -3.287  0.2591E+01  0.9902E+00
     -3.206  0.1648E+01  0.1124E+01
     -3.125  0.1341E+01  0.1233E+01
     -3.044  0.1752E+01  0.1375E+01
     -2.963  0.1241E+01  0.1476E+01
     -2.882  0.1091E+01  0.1564E+01
     -2.800  0.1377E+01  0.1676E+01
     -2.719  0.2391E+01  0.1870E+01
     -2.638  0.2317E+01  0.2058E+01
     -2.557  0.1826E+01  0.2207E+01
     -2.476  0.1617E+01  0.2338E+01
     -2.394  0.1313E+01  0.2444E+01
     -2.313  0.1493E+01  0.2566E+01
     -2.232  0.1374E+01  0.2677E+01
     -2.151  0.1137E+01  0.2769E+01
     -2.070  0.1220E+01  0.2869E+01
     -1.989  0.1311E+01  0.2975E+01
     -1.907  0.1155E+01  0.3069E+01
     -1.826  0.1767E+01  0.3212E+01
     -1.745  0.1139E+01  0.3305E+01
     -1.664  0.9935E+00  0.3385E+01
     -1.583  0.1268E+01  0.3488E+01
     -1.501  0.1902E+01  0.3643E+01
     -1.420  0.1681E+01  0.3779E+01
     -1.339  0.1135E+01  0.3871E+01
     -1.258  0.1173E+01  0.3966E+01
     -1.177  0.9338E+00  0.4042E+01
     -1.096  0.1181E+01  0.4138E+01
     -1.014  0.1001E+01  0.4219E+01
     -0.933  0.8944E+00  0.4292E+01
     -0.852  0.9759E+00  0.4371E+01
     -0.771  0.1082E+01  0.4459E+01
     -0.690  0.6694E+00  0.4513E+01
     -0.608  0.1032E+01  0.4597E+01
     -0.527  0.1066E+01  0.4684E+01
     -0.446  0.7120E+00  0.4742E+01
     -0.365  0.9253E+00  0.4817E+01
     -0.284  0.8300E+00  0.4884E+01
     -0.203  0.9715E+00  0.4963E+01
     -0.121  0.6996E+00  0.5020E+01
     -0.040  0.6601E+00  0.5073E+01
      0.041  0.6900E+00  0.5129E+01
      0.122  0.8629E+00  0.5199E+01
      0.203  0.5723E+00  0.5246E+01
      0.285  0.1354E+01  0.5356E+01
      0.366  0.3451E+01  0.5636E+01
      0.447  0.3674E+01  0.5934E+01
      0.528  0.3182E+01  0.6193E+01
      0.609  0.3576E+01  0.6483E+01
      0.691  0.2729E+01  0.6705E+01
      0.772  0.2084E+01  0.6874E+01
      0.853  0.2014E+01  0.7037E+01
      0.934  0.2291E+01  0.7223E+01
      1.015  0.1947E+01  0.7381E+01
      1.096  0.2015E+01  0.7545E+01
      1.178  0.2326E+01  0.7734E+01
      1.259  0.2075E+01  0.7902E+01
      1.340  0.2299E+01  0.8089E+01
      1.421  0.2276E+01  0.8274E+01
      1.502  0.3252E+01  0.8538E+01
      1.584  0.2996E+01  0.8781E+01
      1.665  0.3694E+01  0.9081E+01
      1.746  0.3246E+01  0.9344E+01
      1.827  0.2578E+01  0.9554E+01
      1.908  0.2449E+01  0.9752E+01
      1.989  0.2957E+01  0.9992E+01
      2.071  0.2632E+01  0.1021E+02
      2.152  0.2916E+01  0.1044E+02
      2.233  0.2770E+01  0.1067E+02
      2.314  0.3700E+01  0.1097E+02
      2.395  0.4040E+01  0.1130E+02
      2.477  0.4145E+01  0.1163E+02
      2.558  0.4172E+01  0.1197E+02
      2.639  0.2861E+01  0.1220E+02
      2.720  0.2616E+01  0.1242E+02
      2.801  0.3035E+01  0.1266E+02
      2.882  0.2623E+01  0.1288E+02
      2.964  0.2687E+01  0.1309E+02
      3.045  0.2512E+01  0.1330E+02
      3.126  0.2979E+01  0.1354E+02
      3.207  0.3049E+01  0.1379E+02
      3.288  0.2890E+01  0.1402E+02
      3.370  0.1964E+01  0.1418E+02
      3.451  0.3704E+01  0.1448E+02
      3.532  0.2725E+01  0.1470E+02
      3.613  0.2773E+01  0.1493E+02
      3.694  0.2788E+01  0.1515E+02
      3.775  0.1473E+01  0.1527E+02
      3.857  0.1937E+01  0.1543E+02
      3.938  0.3143E+01  0.1569E+02
      4.019  0.3368E+01  0.1596E+02
      4.100  0.2514E+01  0.1616E+02
      4.181  0.2468E+01  0.1636E+02
      4.263  0.2114E+01  0.1654E+02
      4.344  0.1812E+01  0.1668E+02
      4.425  0.1996E+01  0.1684E+02
      4.506  0.2683E+01  0.1706E+02
      4.587  0.2269E+01  0.1725E+02
      4.668  0.2631E+01  0.1746E+02
      4.750  0.2646E+01  0.1768E+02
      4.831  0.2338E+01  0.1786E+02
      4.912  0.2482E+01  0.1807E+02
      4.993  0.2032E+01  0.1823E+02
      5.074  0.2538E+01  0.1844E+02
      5.156  0.3023E+01  0.1868E+02
      5.237  0.3282E+01  0.1895E+02
      5.318  0.4037E+01  0.1928E+02
      5.399  0.4343E+01  0.1963E+02
      5.480  0.3394E+01  0.1991E+02
      5.562  0.3563E+01  0.2019E+02
      5.643  0.2677E+01  0.2041E+02
      5.724  0.3130E+01  0.2067E+02
      5.805  0.2360E+01  0.2086E+02
      5.886  0.2307E+01  0.2104E+02
      5.967  0.3278E+01  0.2131E+02
      6.049  0.3009E+01  0.2156E+02
      6.130  0.3042E+01  0.2180E+02
      6.211  0.2973E+01  0.2204E+02
      6.292  0.3380E+01  0.2232E+02
      6.373  0.3172E+01  0.2258E+02
      6.455  0.2869E+01  0.2281E+02
      6.536  0.5682E+01  0.2327E+02
      6.617  0.6900E+01  0.2383E+02
      6.698  0.5854E+01  0.2431E+02
      6.779  0.4757E+01  0.2469E+02
      6.860  0.4556E+01  0.2506E+02
      6.942  0.5134E+01  0.2548E+02
      7.023  0.3952E+01  0.2580E+02
      7.104  0.4756E+01  0.2618E+02
      7.185  0.5093E+01  0.2660E+02
      7.266  0.4330E+01  0.2695E+02
      7.348  0.3910E+01  0.2727E+02
      7.429  0.4282E+01  0.2761E+02
      7.510  0.4980E+01  0.2802E+02
      7.591  0.5117E+01  0.2843E+02
      7.672  0.4040E+01  0.2876E+02
      7.753  0.3652E+01  0.2906E+02
      7.835  0.3698E+01  0.2936E+02
      7.916  0.3149E+01  0.2961E+02
      7.997  0.3624E+01  0.2991E+02
      8.078  0.3118E+01  0.3016E+02
      8.159  0.2902E+01  0.3040E+02
      8.241  0.3105E+01  0.3065E+02
      8.322  0.2789E+01  0.3088E+02
      8.403  0.2893E+01  0.3111E+02
      8.484  0.3511E+01  0.3140E+02
      8.565  0.2757E+01  0.3162E+02
      8.646  0.2021E+01  0.3178E+02
      8.728  0.1759E+01  0.3193E+02
      8.809  0.2642E+01  0.3214E+02
      8.890  0.2944E+01  0.3238E+02
      8.971  0.3647E+01  0.3268E+02
      9.052  0.2920E+01  0.3291E+02
      9.134  0.1868E+01  0.3307E+02
      9.215  0.1959E+01  0.3322E+02
      9.296  0.2836E+01  0.3345E+02
      9.377  0.2834E+01  0.3368E+02
      9.458  0.2142E+01  0.3386E+02
      9.539  0.2337E+01  0.3405E+02
      9.621  0.1772E+01  0.3419E+02
      9.702  0.1457E+01  0.3431E+02
      9.783  0.1940E+01  0.3447E+02
      9.864  0.1242E+01  0.3457E+02
      9.945  0.1253E+01  0.3467E+02
     10.027  0.1921E+01  0.3483E+02
     10.108  0.2739E+01  0.3505E+02
     10.189  0.2422E+01  0.3525E+02
     10.270  0.2138E+01  0.3542E+02
     10.351  0.1763E+01  0.3556E+02
     10.432  0.2389E+01  0.3576E+02
     10.514  0.2905E+01  0.3599E+02
     10.595  0.3669E+01  0.3629E+02
     10.676  0.2821E+01  0.3652E+02
     10.757  0.2064E+01  0.3669E+02
     10.838  0.2843E+01  0.3692E+02
     10.920  0.3051E+01  0.3716E+02
     11.001  0.3892E+01  0.3748E+02
     11.082  0.3930E+01  0.3780E+02
     11.163  0.3579E+01  0.3809E+02
     11.244  0.3747E+01  0.3839E+02
     11.326  0.3225E+01  0.3866E+02
     11.407  0.3679E+01  0.3896E+02
     11.488  0.5175E+01  0.3938E+02
     11.569  0.4858E+01  0.3977E+02
     11.650  0.4408E+01  0.4013E+02
     11.731  0.4929E+01  0.4053E+02
     11.813  0.6065E+01  0.4102E+02
     11.894  0.5850E+01  0.4149E+02
     11.975  0.5495E+01  0.4194E+02
     12.056  0.4650E+01  0.4232E+02
     12.137  0.4630E+01  0.4269E+02
     12.219  0.3478E+01  0.4298E+02
     12.300  0.3380E+01  0.4325E+02
     12.381  0.3043E+01  0.4350E+02
     12.462  0.3854E+01  0.4381E+02
     12.543  0.4723E+01  0.4419E+02
     12.624  0.3324E+01  0.4446E+02
     12.706  0.3315E+01  0.4473E+02
     12.787  0.3768E+01  0.4504E+02
     12.868  0.2695E+01  0.4526E+02
     12.949  0.2822E+01  0.4549E+02
     13.030  0.2844E+01  0.4572E+02
     13.112  0.2405E+01  0.4591E+02
     13.193  0.2776E+01  0.4614E+02
     13.274  0.3201E+01  0.4640E+02
     13.355  0.3157E+01  0.4665E+02
     13.436  0.3387E+01  0.4693E+02
     13.517  0.4075E+01  0.4726E+02
     13.599  0.3396E+01  0.4754E+02
     13.680  0.2175E+01  0.4771E+02
     13.761  0.3690E+01  0.4801E+02
     13.842  0.4049E+01  0.4834E+02
     13.923  0.3435E+01  0.4862E+02
     14.005  0.3485E+01  0.4890E+02
     14.086  0.4510E+01  0.4927E+02
     14.167  0.4592E+01  0.4964E+02
     14.248  0.4940E+01  0.5004E+02
     14.329  0.3653E+01  0.5034E+02
     14.410  0.3111E+01  0.5059E+02
     14.492  0.2791E+01  0.5082E+02
     14.573  0.3817E+01  0.5113E+02
     14.654  0.4349E+01  0.5148E+02
     14.735  0.4525E+01  0.5185E+02
     14.816  0.3524E+01  0.5214E+02
     14.898  0.2524E+01  0.5234E+02
     14.979  0.2927E+01  0.5258E+02
     15.060  0.4516E+01  0.5294E+02
     15.141  0.4020E+01  0.5327E+02
     15.222  0.3629E+01  0.5357E+02
     15.303  0.4173E+01  0.5390E+02
     15.385  0.2544E+01  0.5411E+02
     15.466  0.1755E+01  0.5425E+02
     15.547  0.1814E+01  0.5440E+02
     15.628  0.1918E+01  0.5456E+02
     15.709  0.1746E+01  0.5470E+02
     15.791  0.1296E+01  0.5480E+02
     15.872  0.7822E+00  0.5487E+02
     15.953  0.1133E+01  0.5496E+02
     16.034  0.1079E+01  0.5505E+02
     16.115  0.1017E+01  0.5513E+02
     16.197  0.9396E+00  0.5520E+02
     16.278  0.3949E+00  0.5524E+02
     16.359  0.8672E+00  0.5531E+02
     16.440  0.7866E+00  0.5537E+02
     16.521  0.6707E+00  0.5543E+02
     16.602  0.1025E+01  0.5551E+02
     16.684  0.1460E+01  0.5563E+02
     16.765  0.1786E+01  0.5577E+02
     16.846  0.8924E+00  0.5584E+02
     16.927  0.2369E+00  0.5586E+02
     17.008  0.4816E+00  0.5590E+02
     17.090  0.2320E+00  0.5592E+02
     17.171  0.2449E+00  0.5594E+02
     17.252  0.2338E+00  0.5596E+02
     17.333  0.2872E+00  0.5598E+02
     17.414  0.8150E-01  0.5599E+02
     17.495  0.2338E-01  0.5599E+02
     17.577  0.8132E-01  0.5600E+02
     17.658  0.8050E-02  0.5600E+02
     17.739  0.9612E-05  0.5600E+02
     17.820  0.7929E-10  0.5600E+02
     17.901  0.0000E+00  0.5600E+02
     17.983  0.0000E+00  0.5600E+02
     18.064  0.0000E+00  0.5600E+02
     18.145  0.0000E+00  0.5600E+02
     18.226  0.0000E+00  0.5600E+02
     18.307  0.0000E+00  0.5600E+02
     18.388  0.0000E+00  0.5600E+02
     18.470  0.0000E+00  0.5600E+02
     18.551  0.0000E+00  0.5600E+02
     18.632  0.0000E+00  0.5600E+02
     18.63200291     -5.72296548  301      8.75868792      1.00000000
     -5.723  0.0000E+00  0.0000E+00  0.0000E+00  0.0000E+00  0.0000E+00  0.0000E+00  0.0000E+00  0.0000E+00  0.0000E+00
     -5.642  0.0000E+00  0.0000E+00  0.0000E+00  0.0000E+00  0.0000E+00  0.0000E+00  0.0000E+00  0.0000E+00  0.0000E+00
     -5.561  0.0000E+00  0.0000E+00  0.0000E+00  0.0000E+00  0.0000E+00  0.0000E+00  0.0000E+00  0.0000E+00  0.0000E+00
     -5.479  0.0000E+00  0.0000E+00  0.0000E+00  0.0000E+00  0.0000E+00  0.0000E+00  0.0000E+00  0.0000E+00  0.0000E+00
     -5.398  0.0000E+00  0.0000E+00  0.0000E+00  0.0000E+00  0.0000E+00  0.0000E+00  0.0000E+00  0.0000E+00  0.0000E+00
     -5.317  0.0000E+00  0.0000E+00  0.0000E+00  0.0000E+00  0.0000E+00  0.0000E+00  0.0000E+00  0.0000E+00  0.0000E+00
     -5.236  0.0000E+00  0.0000E+00  0.0000E+00  0.0000E+00  0.0000E+00  0.0000E+00  0.0000E+00  0.0000E+00  0.0000E+00
     -5.155  0.0000E+00  0.0000E+00  0.0000E+00  0.0000E+00  0.0000E+00  0.0000E+00  0.0000E+00  0.0000E+00  0.0000E+00
     -5.073  0.0000E+00  0.0000E+00  0.0000E+00  0.0000E+00  0.0000E+00  0.0000E+00  0.0000E+00  0.0000E+00  0.0000E+00
     -4.992  0.0000E+00  0.0000E+00  0.0000E+00  0.0000E+00  0.0000E+00  0.0000E+00  0.0000E+00  0.0000E+00  0.0000E+00
     -4.911  0.1289E-17  0.6269E-30  0.3094E-22  0.1223E-26  0.0000E+00  0.0000E+00  0.0000E+00  0.0000E+00  0.0000E+00
     -4.830  0.2515E-10  0.1058E-14  0.1448E-14  0.7346E-15  0.0000E+00  0.0000E+00  0.0000E+00  0.0000E+00  0.0000E+00
     -4.749  0.3508E-05  0.2358E-09  0.2724E-09  0.1895E-09  0.0000E+00  0.0000E+00  0.0000E+00  0.0000E+00  0.0000E+00
     -4.668  0.3744E-02  0.4911E-06  0.4820E-06  0.4164E-06  0.0000E+00  0.0000E+00  0.0000E+00  0.0000E+00  0.0000E+00
     -4.586  0.6046E-01  0.2112E-04  0.1833E-04  0.1785E-04  0.0000E+00  0.0000E+00  0.0000E+00  0.0000E+00  0.0000E+00
     -4.505  0.6452E-01  0.8244E-04  0.6761E-04  0.6876E-04  0.0000E+00  0.0000E+00  0.0000E+00  0.0000E+00  0.0000E+00
     -4.424  0.3878E-01  0.1265E-03  0.1026E-03  0.1077E-03  0.0000E+00  0.0000E+00  0.0000E+00  0.0000E+00  0.0000E+00
     -4.343  0.3059E-01  0.1566E-03  0.1273E-03  0.1408E-03  0.0000E+00  0.0000E+00  0.0000E+00  0.0000E+00  0.0000E+00
     -4.262  0.2521E-01  0.1810E-03  0.1478E-03  0.1356E-03  0.0000E+00  0.0000E+00  0.0000E+00  0.0000E+00  0.0000E+00
     -4.180  0.2425E-01  0.2015E-03  0.1656E-03  0.2078E-03  0.0000E+00  0.0000E+00  0.0000E+00  0.0000E+00  0.0000E+00
     -4.099  0.1959E-01  0.2179E-03  0.1817E-03  0.1454E-03  0.0000E+00  0.0000E+00  0.0000E+00  0.0000E+00  0.0000E+00
     -4.018  0.2012E-01  0.2356E-03  0.1961E-03  0.2346E-03  0.0000E+00  0.0000E+00  0.0000E+00  0.0000E+00  0.0000E+00
     -3.937  0.2240E-01  0.3830E-03  0.2057E-03  0.2231E-03  0.0000E+00  0.0000E+00  0.0000E+00  0.0000E+00  0.0000E+00
     -3.856  0.2258E-01  0.5019E-03  0.2113E-03  0.1730E-03  0.0000E+00  0.0000E+00  0.0000E+00  0.0000E+00  0.0000E+00
     -3.775  0.2279E-01  0.4464E-03  0.2311E-03  0.3284E-03  0.0000E+00  0.0000E+00  0.0000E+00  0.0000E+00  0.0000E+00
     -3.693  0.2020E-01  0.4733E-03  0.2628E-03  0.2222E-03  0.0000E+00  0.0000E+00  0.0000E+00  0.0000E+00  0.0000E+00
     -3.612  0.1731E-01  0.4633E-03  0.2440E-03  0.1590E-03  0.0000E+00  0.0000E+00  0.0000E+00  0.0000E+00  0.0000E+00
     -3.531  0.2169E-01  0.4868E-03  0.2325E-03  0.4652E-03  0.0000E+00  0.0000E+00  0.0000E+00  0.0000E+00  0.0000E+00
     -3.450  0.1830E-01  0.4719E-03  0.3703E-03  0.1849E-03  0.0000E+00  0.0000E+00  0.0000E+00  0.0000E+00  0.0000E+00
     -3.369  0.6187E-01  0.4879E-03  0.4059E-02  0.2127E-03  0.0000E+00  0.0000E+00  0.0000E+00  0.0000E+00  0.0000E+00
     -3.287  0.1275E+00  0.5544E-03  0.9404E-02  0.5173E-03  0.0000E+00  0.0000E+00  0.0000E+00  0.0000E+00  0.0000E+00
     -3.206  0.8291E-01  0.6240E-03  0.5572E-02  0.5795E-03  0.0000E+00  0.0000E+00  0.0000E+00  0.0000E+00  0.0000E+00
     -3.125  0.7613E-01  0.5665E-03  0.3933E-02  0.3840E-03  0.0000E+00  0.0000E+00  0.0000E+00  0.0000E+00  0.0000E+00
     -3.044  0.1166E+00  0.4558E-03  0.3709E-02  0.6320E-03  0.0000E+00  0.0000E+00  0.0000E+00  0.0000E+00  0.0000E+00
     -2.963  0.7695E-01  0.3884E-03  0.3119E-02  0.8792E-03  0.0000E+00  0.0000E+00  0.0000E+00  0.0000E+00  0.0000E+00
     -2.882  0.6264E-01  0.6322E-03  0.3158E-02  0.9024E-03  0.0000E+00  0.0000E+00  0.0000E+00  0.0000E+00  0.0000E+00
     -2.800  0.5184E-01  0.5463E-02  0.2743E-02  0.6802E-03  0.0000E+00  0.0000E+00  0.0000E+00  0.0000E+00  0.0000E+00
     -2.719  0.8521E-01  0.9138E-02  0.3426E-02  0.3694E-02  0.0000E+00  0.0000E+00  0.0000E+00  0.0000E+00  0.0000E+00
     -2.638  0.9922E-01  0.6456E-02  0.3582E-02  0.4524E-02  0.0000E+00  0.0000E+00  0.0000E+00  0.0000E+00  0.0000E+00
     -2.557  0.7775E-01  0.4923E-02  0.4019E-02  0.3030E-02  0.0000E+00  0.0000E+00  0.0000E+00  0.0000E+00  0.0000E+00
     -2.476  0.7256E-01  0.4420E-02  0.3540E-02  0.2701E-02  0.0000E+00  0.0000E+00  0.0000E+00  0.0000E+00  0.0000E+00
     -2.394  0.5620E-01  0.4152E-02  0.3311E-02  0.1640E-02  0.0000E+00  0.0000E+00  0.0000E+00  0.0000E+00  0.0000E+00
     -2.313  0.6763E-01  0.3808E-02  0.3893E-02  0.2803E-02  0.0000E+00  0.0000E+00  0.0000E+00  0.0000E+00  0.0000E+00
     -2.232  0.6286E-01  0.3690E-02  0.3606E-02  0.2491E-02  0.0000E+00  0.0000E+00  0.0000E+00  0.0000E+00  0.0000E+00
     -2.151  0.5020E-01  0.3642E-02  0.3311E-02  0.1570E-02  0.0000E+00  0.0000E+00  0.0000E+00  0.0000E+00  0.0000E+00
     -2.070  0.5943E-01  0.3081E-02  0.3894E-02  0.2181E-02  0.0000E+00  0.0000E+00  0.0000E+00  0.0000E+00  0.0000E+00
     -1.989  0.6164E-01  0.3670E-02  0.4207E-02  0.2394E-02  0.0000E+00  0.0000E+00  0.0000E+00  0.0000E+00  0.0000E+00
     -1.907  0.6198E-01  0.2820E-02  0.4659E-02  0.1462E-02  0.0000E+00  0.0000E+00  0.0000E+00  0.0000E+00  0.0000E+00
     -1.826  0.1128E+00  0.2416E-02  0.8490E-02  0.2628E-02  0.0000E+00  0.0000E+00  0.0000E+00  0.0000E+00  0.0000E+00
     -1.745  0.6246E-01  0.2662E-02  0.4493E-02  0.2324E-02  0.0000E+00  0.0000E+00  0.0000E+00  0.0000E+00  0.0000E+00
     -1.664  0.4827E-01  0.2367E-02  0.4139E-02  0.2234E-02  0.0000E+00  0.0000E+00  0.0000E+00  0.0000E+00  0.0000E+00
     -1.583  0.4154E-01  0.6299E-02  0.3165E-02  0.2167E-02  0.0000E+00  0.0000E+00  0.0000E+00  0.0000E+00  0.0000E+00
     -1.501  0.4361E-01  0.1154E-01  0.3769E-02  0.2591E-02  0.0000E+00  0.0000E+00  0.0000E+00  0.0000E+00  0.0000E+00
     -1.420  0.6267E-01  0.6917E-02  0.4500E-02  0.3984E-02  0.0000E+00  0.0000E+00  0.0000E+00  0.0000E+00  0.0000E+00
     -1.339  0.3902E-01  0.5042E-02  0.3026E-02  0.2537E-02  0.0000E+00  0.0000E+00  0.0000E+00  0.0000E+00  0.0000E+00
     -1.258  0.4563E-01  0.4949E-02  0.4497E-02  0.1950E-02  0.0000E+00  0.0000E+00  0.0000E+00  0.0000E+00  0.0000E+00
     -1.177  0.2974E-01  0.5114E-02  0.2417E-02  0.1635E-02  0.0000E+00  0.0000E+00  0.0000E+00  0.0000E+00  0.0000E+00
     -1.096  0.4737E-01  0.4630E-02  0.4133E-02  0.3338E-02  0.0000E+00  0.0000E+00  0.0000E+00  0.0000E+00  0.0000E+00
     -1.014  0.3775E-01  0.3992E-02  0.3276E-02  0.2679E-02  0.0000E+00  0.0000E+00  0.0000E+00  0.0000E+00  0.0000E+00
     -0.933  0.3419E-01  0.4305E-02  0.3026E-02  0.1587E-02  0.0000E+00  0.0000E+00  0.0000E+00  0.0000E+00  0.0000E+00
     -0.852  0.3656E-01  0.4243E-02  0.3584E-02  0.2491E-02  0.0000E+00  0.0000E+00  0.0000E+00  0.0000E+00  0.0000E+00
     -0.771  0.4568E-01  0.4875E-02  0.3853E-02  0.3029E-02  0.0000E+00  0.0000E+00  0.0000E+00  0.0000E+00  0.0000E+00
     -0.690  0.2371E-01  0.3505E-02  0.2258E-02  0.1331E-02  0.0000E+00  0.0000E+00  0.0000E+00  0.0000E+00  0.0000E+00
     -0.608  0.4344E-01  0.3354E-02  0.4675E-02  0.3389E-02  0.0000E+00  0.0000E+00  0.0000E+00  0.0000E+00  0.0000E+00
     -0.527  0.4099E-01  0.4933E-02  0.3434E-02  0.3326E-02  0.0000E+00  0.0000E+00  0.0000E+00  0.0000E+00  0.0000E+00
     -0.446  0.2445E-01  0.4129E-02  0.2668E-02  0.1110E-02  0.0000E+00  0.0000E+00  0.0000E+00  0.0000E+00  0.0000E+00
     -0.365  0.4017E-01  0.3705E-02  0.4145E-02  0.3028E-02  0.0000E+00  0.0000E+00  0.0000E+00  0.0000E+00  0.0000E+00
     -0.284  0.2868E-01  0.4963E-02  0.2314E-02  0.1983E-02  0.0000E+00  0.0000E+00  0.0000E+00  0.0000E+00  0.0000E+00
     -0.203  0.4311E-01  0.3111E-02  0.5138E-02  0.3817E-02  0.0000E+00  0.0000E+00  0.0000E+00  0.0000E+00  0.0000E+00
     -0.121  0.2453E-01  0.2929E-02  0.2584E-02  0.2173E-02  0.0000E+00  0.0000E+00  0.0000E+00  0.0000E+00  0.0000E+00
     -0.040  0.2675E-01  0.3086E-02  0.2947E-02  0.1822E-02  0.0000E+00  0.0000E+00  0.0000E+00  0.0000E+00  0.0000E+00
      0.041  0.2370E-01  0.3461E-02  0.2105E-02  0.2522E-02  0.0000E+00  0.0000E+00  0.0000E+00  0.0000E+00  0.0000E+00
      0.122  0.3915E-01  0.3202E-02  0.4688E-02  0.3693E-02  0.0000E+00  0.0000E+00  0.0000E+00  0.0000E+00  0.0000E+00
      0.203  0.2452E-01  0.1625E-02  0.3153E-02  0.2236E-02  0.0000E+00  0.0000E+00  0.0000E+00  0.0000E+00  0.0000E+00
      0.285  0.4936E-01  0.3291E-02  0.1131E-01  0.1884E-02  0.0000E+00  0.0000E+00  0.0000E+00  0.0000E+00  0.0000E+00
      0.366  0.1373E+00  0.3899E-02  0.3479E-01  0.2681E-02  0.0000E+00  0.0000E+00  0.0000E+00  0.0000E+00  0.0000E+00
      0.447  0.1741E+00  0.4196E-02  0.2121E-01  0.4101E-02  0.0000E+00  0.0000E+00  0.0000E+00  0.0000E+00  0.0000E+00
      0.528  0.1468E+00  0.1229E-01  0.1094E-01  0.5532E-02  0.0000E+00  0.0000E+00  0.0000E+00  0.0000E+00  0.0000E+00
      0.609  0.1518E+00  0.1715E-01  0.1301E-01  0.7154E-02  0.0000E+00  0.0000E+00  0.0000E+00  0.0000E+00  0.0000E+00
      0.691  0.1102E+00  0.1087E-01  0.1329E-01  0.6437E-02  0.0000E+00  0.0000E+00  0.0000E+00  0.0000E+00  0.0000E+00
      0.772  0.8510E-01  0.1068E-01  0.9412E-02  0.4277E-02  0.0000E+00  0.0000E+00  0.0000E+00  0.0000E+00  0.0000E+00
      0.853  0.9312E-01  0.8353E-02  0.9890E-02  0.5521E-02  0.0000E+00  0.0000E+00  0.0000E+00  0.0000E+00  0.0000E+00
      0.934  0.1094E+00  0.7579E-02  0.1294E-01  0.5763E-02  0.0000E+00  0.0000E+00  0.0000E+00  0.0000E+00  0.0000E+00
      1.015  0.9335E-01  0.6325E-02  0.1109E-01  0.3477E-02  0.0000E+00  0.0000E+00  0.0000E+00  0.0000E+00  0.0000E+00
      1.096  0.8739E-01  0.7196E-02  0.1170E-01  0.3056E-02  0.0000E+00  0.0000E+00  0.0000E+00  0.0000E+00  0.0000E+00
      1.178  0.1073E+00  0.8157E-02  0.1268E-01  0.5147E-02  0.0000E+00  0.0000E+00  0.0000E+00  0.0000E+00  0.0000E+00
      1.259  0.1055E+00  0.6558E-02  0.1041E-01  0.6086E-02  0.0000E+00  0.0000E+00  0.0000E+00  0.0000E+00  0.0000E+00
      1.340  0.1441E+00  0.5300E-02  0.1067E-01  0.3139E-02  0.0000E+00  0.0000E+00  0.0000E+00  0.0000E+00  0.0000E+00
      1.421  0.1246E+00  0.4849E-02  0.9144E-02  0.4259E-02  0.0000E+00  0.0000E+00  0.0000E+00  0.0000E+00  0.0000E+00
      1.502  0.1336E+00  0.1020E-01  0.9322E-02  0.6246E-02  0.0000E+00  0.0000E+00  0.0000E+00  0.0000E+00  0.0000E+00
      1.584  0.1034E+00  0.1115E-01  0.7902E-02  0.5634E-02  0.0000E+00  0.0000E+00  0.0000E+00  0.0000E+00  0.0000E+00
      1.665  0.1761E+00  0.8339E-02  0.2029E-01  0.6411E-02  0.0000E+00  0.0000E+00  0.0000E+00  0.0000E+00  0.0000E+00
      1.746  0.1725E+00  0.5433E-02  0.1702E-01  0.4476E-02  0.0000E+00  0.0000E+00  0.0000E+00  0.0000E+00  0.0000E+00
      1.827  0.1329E+00  0.6081E-02  0.1339E-01  0.3459E-02  0.0000E+00  0.0000E+00  0.0000E+00  0.0000E+00  0.0000E+00
      1.908  0.1349E+00  0.5737E-02  0.1223E-01  0.3587E-02  0.0000E+00  0.0000E+00  0.0000E+00  0.0000E+00  0.0000E+00
      1.989  0.1529E+00  0.1314E-01  0.1123E-01  0.5465E-02  0.0000E+00  0.0000E+00  0.0000E+00  0.0000E+00  0.0000E+00
      2.071  0.1230E+00  0.1421E-01  0.1066E-01  0.8997E-02  0.0000E+00  0.0000E+00  0.0000E+00  0.0000E+00  0.0000E+00
      2.152  0.1227E+00  0.1468E-01  0.1591E-01  0.9072E-02  0.0000E+00  0.0000E+00  0.0000E+00  0.0000E+00  0.0000E+00
      2.233  0.8332E-01  0.1957E-01  0.1051E-01  0.1460E-01  0.0000E+00  0.0000E+00  0.0000E+00  0.0000E+00  0.0000E+00
      2.314  0.8795E-01  0.1244E-01  0.1645E-01  0.6363E-01  0.0000E+00  0.0000E+00  0.0000E+00  0.0000E+00  0.0000E+00
      2.395  0.9902E-01  0.1452E-01  0.4996E-01  0.4775E-01  0.0000E+00  0.0000E+00  0.0000E+00  0.0000E+00  0.0000E+00
      2.477  0.1104E+00  0.3856E-01  0.3608E-01  0.3563E-01  0.0000E+00  0.0000E+00  0.0000E+00  0.0000E+00  0.0000E+00
      2.558  0.1373E+00  0.3506E-01  0.3093E-01  0.2331E-01  0.0000E+00  0.0000E+00  0.0000E+00  0.0000E+00  0.0000E+00
      2.639  0.8537E-01  0.2465E-01  0.2624E-01  0.1900E-01  0.0000E+00  0.0000E+00  0.0000E+00  0.0000E+00  0.0000E+00
      2.720  0.5696E-01  0.2871E-01  0.1938E-01  0.1710E-01  0.0000E+00  0.0000E+00  0.0000E+00  0.0000E+00  0.0000E+00
      2.801  0.4925E-01  0.3613E-01  0.1915E-01  0.1498E-01  0.0000E+00  0.0000E+00  0.0000E+00  0.0000E+00  0.0000E+00
      2.882  0.6087E-01  0.2523E-01  0.2044E-01  0.1578E-01  0.0000E+00  0.0000E+00  0.0000E+00  0.0000E+00  0.0000E+00
      2.964  0.6549E-01  0.2479E-01  0.1782E-01  0.1957E-01  0.0000E+00  0.0000E+00  0.0000E+00  0.0000E+00  0.0000E+00
      3.045  0.5771E-01  0.2415E-01  0.2100E-01  0.1513E-01  0.0000E+00  0.0000E+00  0.0000E+00  0.0000E+00  0.0000E+00
      3.126  0.7476E-01  0.2927E-01  0.2020E-01  0.1442E-01  0.0000E+00  0.0000E+00  0.0000E+00  0.0000E+00  0.0000E+00
      3.207  0.7836E-01  0.3231E-01  0.1637E-01  0.1295E-01  0.0000E+00  0.0000E+00  0.0000E+00  0.0000E+00  0.0000E+00
      3.288  0.1186E+00  0.1692E-01  0.2410E-01  0.1382E-01  0.0000E+00  0.0000E+00  0.0000E+00  0.0000E+00  0.0000E+00
      3.370  0.5839E-01  0.1018E-01  0.1597E-01  0.2259E-01  0.0000E+00  0.0000E+00  0.0000E+00  0.0000E+00  0.0000E+00
      3.451  0.5590E-01  0.1139E-01  0.9947E-02  0.9805E-01  0.0000E+00  0.0000E+00  0.0000E+00  0.0000E+00  0.0000E+00
      3.532  0.3063E-01  0.7623E-02  0.8465E-02  0.8071E-01  0.0000E+00  0.0000E+00  0.0000E+00  0.0000E+00  0.0000E+00
      3.613  0.3712E-01  0.1137E-01  0.1484E-01  0.7700E-01  0.0000E+00  0.0000E+00  0.0000E+00  0.0000E+00  0.0000E+00
      3.694  0.4230E-01  0.8996E-02  0.1460E-01  0.9776E-01  0.0000E+00  0.0000E+00  0.0000E+00  0.0000E+00  0.0000E+00
      3.775  0.2122E-01  0.5501E-02  0.7169E-02  0.4997E-01  0.0000E+00  0.0000E+00  0.0000E+00  0.0000E+00  0.0000E+00
      3.857  0.2756E-01  0.1713E-01  0.1137E-01  0.4593E-01  0.0000E+00  0.0000E+00  0.0000E+00  0.0000E+00  0.0000E+00
      3.938  0.3478E-01  0.4641E-01  0.1170E-01  0.3918E-01  0.0000E+00  0.0000E+00  0.0000E+00  0.0000E+00  0.0000E+00
      4.019  0.1672E-01  0.6033E-01  0.2417E-02  0.3163E-01  0.0000E+00  0.0000E+00  0.0000E+00  0.0000E+00  0.0000E+00
      4.100  0.2811E-01  0.3213E-01  0.5844E-02  0.3803E-01  0.0000E+00  0.0000E+00  0.0000E+00  0.0000E+00  0.0000E+00
      4.181  0.2953E-01  0.2752E-01  0.1195E-01  0.3593E-01  0.0000E+00  0.0000E+00  0.0000E+00  0.0000E+00  0.0000E+00
      4.263  0.2929E-01  0.2087E-01  0.8567E-02  0.3420E-01  0.0000E+00  0.0000E+00  0.0000E+00  0.0000E+00  0.0000E+00
      4.344  0.2302E-01  0.2303E-01  0.4868E-02  0.3327E-01  0.0000E+00  0.0000E+00  0.0000E+00  0.0000E+00  0.0000E+00
      4.425  0.2420E-01  0.2070E-01  0.1646E-01  0.3077E-01  0.0000E+00  0.0000E+00  0.0000E+00  0.0000E+00  0.0000E+00
      4.506  0.3123E-01  0.3275E-01  0.2756E-01  0.2897E-01  0.0000E+00  0.0000E+00  0.0000E+00  0.0000E+00  0.0000E+00
      4.587  0.3161E-01  0.1593E-01  0.2469E-01  0.3265E-01  0.0000E+00  0.0000E+00  0.0000E+00  0.0000E+00  0.0000E+00
      4.668  0.2871E-01  0.3108E-01  0.2264E-01  0.3783E-01  0.0000E+00  0.0000E+00  0.0000E+00  0.0000E+00  0.0000E+00
      4.750  0.3170E-01  0.2072E-01  0.1941E-01  0.7449E-01  0.0000E+00  0.0000E+00  0.0000E+00  0.0000E+00  0.0000E+00
      4.831  0.2288E-01  0.1804E-01  0.2200E-01  0.5674E-01  0.0000E+00  0.0000E+00  0.0000E+00  0.0000E+00  0.0000E+00
      4.912  0.3766E-01  0.2837E-01  0.1721E-01  0.4209E-01  0.0000E+00  0.0000E+00  0.0000E+00  0.0000E+00  0.0000E+00
      4.993  0.3612E-01  0.1961E-01  0.1800E-01  0.3519E-01  0.0000E+00  0.0000E+00  0.0000E+00  0.0000E+00  0.0000E+00
      5.074  0.2502E-01  0.1974E-01  0.1914E-01  0.2431E-01  0.0000E+00  0.0000E+00  0.0000E+00  0.0000E+00  0.0000E+00
      5.156  0.3491E-01  0.2593E-01  0.3630E-01  0.2513E-01  0.0000E+00  0.0000E+00  0.0000E+00  0.0000E+00  0.0000E+00
      5.237  0.2576E-01  0.1781E-01  0.8254E-01  0.2385E-01  0.0000E+00  0.0000E+00  0.0000E+00  0.0000E+00  0.0000E+00
      5.318  0.6521E-01  0.2248E-01  0.7306E-01  0.3095E-01  0.0000E+00  0.0000E+00  0.0000E+00  0.0000E+00  0.0000E+00
      5.399  0.1054E+00  0.2003E-01  0.6743E-01  0.3254E-01  0.0000E+00  0.0000E+00  0.0000E+00  0.0000E+00  0.0000E+00
      5.480  0.7708E-01  0.2822E-01  0.3230E-01  0.4074E-01  0.0000E+00  0.0000E+00  0.0000E+00  0.0000E+00  0.0000E+00
      5.562  0.8255E-01  0.3810E-01  0.3066E-01  0.3479E-01  0.0000E+00  0.0000E+00  0.0000E+00  0.0000E+00  0.0000E+00
      5.643  0.4688E-01  0.2549E-01  0.2260E-01  0.2973E-01  0.0000E+00  0.0000E+00  0.0000E+00  0.0000E+00  0.0000E+00
      5.724  0.5217E-01  0.3263E-01  0.2945E-01  0.3106E-01  0.0000E+00  0.0000E+00  0.0000E+00  0.0000E+00  0.0000E+00
      5.805  0.3972E-01  0.2663E-01  0.1975E-01  0.2655E-01  0.0000E+00  0.0000E+00  0.0000E+00  0.0000E+00  0.0000E+00
      5.886  0.3537E-01  0.2659E-01  0.2916E-01  0.2078E-01  0.0000E+00  0.0000E+00  0.0000E+00  0.0000E+00  0.0000E+00
      5.967  0.4627E-01  0.3098E-01  0.4996E-01  0.4094E-01  0.0000E+00  0.0000E+00  0.0000E+00  0.0000E+00  0.0000E+00
      6.049  0.4475E-01  0.2810E-01  0.4491E-01  0.4125E-01  0.0000E+00  0.0000E+00  0.0000E+00  0.0000E+00  0.0000E+00
      6.130  0.4324E-01  0.3423E-01  0.4960E-01  0.3070E-01  0.0000E+00  0.0000E+00  0.0000E+00  0.0000E+00  0.0000E+00
      6.211  0.3248E-01  0.2511E-01  0.5558E-01  0.3620E-01  0.0000E+00  0.0000E+00  0.0000E+00  0.0000E+00  0.0000E+00
      6.292  0.3352E-01  0.2933E-01  0.7129E-01  0.3067E-01  0.0000E+00  0.0000E+00  0.0000E+00  0.0000E+00  0.0000E+00
      6.373  0.3456E-01  0.3166E-01  0.7549E-01  0.3261E-01  0.0000E+00  0.0000E+00  0.0000E+00  0.0000E+00  0.0000E+00
      6.455  0.3516E-01  0.3173E-01  0.3948E-01  0.4684E-01  0.0000E+00  0.0000E+00  0.0000E+00  0.0000E+00  0.0000E+00
      6.536  0.5074E-01  0.3482E-01  0.8922E-01  0.1562E+00  0.0000E+00  0.0000E+00  0.0000E+00  0.0000E+00  0.0000E+00
      6.617  0.7423E-01  0.6180E-01  0.8496E-01  0.1500E+00  0.0000E+00  0.0000E+00  0.0000E+00  0.0000E+00  0.0000E+00
      6.698  0.4341E-01  0.4617E-01  0.5919E-01  0.9143E-01  0.0000E+00  0.0000E+00  0.0000E+00  0.0000E+00  0.0000E+00
      6.779  0.2844E-01  0.3937E-01  0.4083E-01  0.9010E-01  0.0000E+00  0.0000E+00  0.0000E+00  0.0000E+00  0.0000E+00
      6.860  0.3396E-01  0.4756E-01  0.4672E-01  0.9649E-01  0.0000E+00  0.0000E+00  0.0000E+00  0.0000E+00  0.0000E+00
      6.942  0.4131E-01  0.5661E-01  0.4679E-01  0.1321E+00  0.0000E+00  0.0000E+00  0.0000E+00  0.0000E+00  0.0000E+00