    8    8    1    1
  0.1531586E+02  0.5261559E-09  0.5261559E-09  0.5360907E-09  0.5000000E-16
  1.000000000000000E-004
  CAR 
 matgen-band                             
     32    220     28
 
  0.0000000E+00  0.0000000E+00  0.0000000E+00  0.4545455E-02
    1       -4.615921   1.000000
    2        0.295649   1.000000
    3        0.301522   1.000000
    4        1.448513   1.000000
    5        1.917704   1.000000
    6        2.165900   1.000000
    7        2.444441   1.000000
    8        3.636615   1.000000
    9        3.942893   1.000000
   10        6.225852   1.000000
   11        6.363868   1.000000
   12        6.577003   1.000000
   13        6.713129   1.000000
   14        6.912672   1.000000
   15        7.098771   1.000000
   16        7.153582   1.000000
   17        7.190084   1.000000
   18        7.406295   1.000000
   19        7.475737   1.000000
   20       10.461875   0.000000
   21       10.920380   0.000000
   22       13.986873   0.000000
   23       14.233982   0.000000
   24       15.061414   0.000000
   25       15.251093   0.000000
   26       16.636080   0.000000
   27       16.711027   0.000000
   28       16.748005   0.000000
 
  0.2631579E-01  0.2631579E-01  0.0000000E+00  0.4545455E-02
    1       -4.599518   1.000000
    2        0.310619   1.000000
    3        0.317591   1.000000
    4        1.464634   1.000000
    5        1.746077   1.000000
    6        1.998061   1.000000
    7        2.458695   1.000000
    8        3.836512   1.000000
    9        4.137246   1.000000
   10        6.240782   1.000000
   11        6.291407   1.000000
   12        6.439011   1.000000
   13        6.591528   1.000000
   14        6.641020   1.000000
   15        6.731113   1.000000
   16        7.204789   1.000000
   17        7.422411   1.000000
   18        7.596139   1.000000
   19        7.924004   1.000000
   20       10.565316   0.000000
   21       11.024423   0.000000
   22       14.001680   0.000000
   23       14.130691   0.000000
   24       14.918099   0.000000
   25       15.228026   0.000000
   26       16.154695   0.000000
   27       16.771412   0.000000
   28       16.844573   0.000000
 
  0.5263158E-01  0.5263158E-01  0.0000000E+00  0.4545455E-02
    1       -4.550316   1.000000
    2        0.354412   1.000000
    3        0.365777   1.000000
    4        1.368320   1.000000
    5        1.512958   1.000000
    6        1.622533   1.000000
    7        2.501257   1.000000
    8        4.299735   1.000000
    9        4.591695   1.000000
   10        5.908669   1.000000
   11        6.093573   1.000000
   12        6.208025   1.000000
   13        6.285717   1.000000
   14        6.443738   1.000000
   15        6.635010   1.000000
   16        7.248868   1.000000
   17        7.471094   1.000000
   18        8.197346   1.000000
   19        8.524417   1.000000
   20       10.855996   0.000000
   21       11.317475   0.000000
   22       13.870281   0.000000
   23       14.046139   0.000000
   24       14.592873   0.000000
   25       15.023689   0.000000
   26       15.487945   0.000000
   27       17.104540   0.000000
   28       17.184184   0.000000
 
  0.7894737E-01  0.7894737E-01  0.0000000E+00  0.4545455E-02
    1       -4.468371   1.000000
    2        0.418706   1.000000
    3        0.446030   1.000000
    4        0.940034   1.000000
    5        1.182677   1.000000
    6        1.593389   1.000000
    7        2.571471   1.000000
    8        4.877332   1.000000
    9        5.160766   1.000000
   10        5.402039   1.000000
   11        5.706829   1.000000
   12        5.812239   1.000000
   13        6.162347   1.000000
   14        6.361373   1.000000
   15        6.707167   1.000000
   16        7.322200   1.000000
   17        7.553603   1.000000
   18        8.820958   0.039096
   19        9.154144   0.000000
   20       11.291719   0.000000
   21       11.758411   0.000000
   22       13.534151   0.000000
   23       14.120429   0.000000
   24       14.208358   0.000000
   25       14.271314   0.000000
   26       15.300433   0.000000
   27       16.945182   0.000000
   28       17.524959   0.000000
 
  0.1052632E+00  0.1052632E+00  0.0000000E+00  0.4545455E-02
    1       -4.353767   1.000000
    2        0.375473   1.000000
    3        0.558244   1.000000
    4        0.644426   1.000000
    5        0.734564   1.000000
    6        1.705729   1.000000
    7        2.667880   1.000000
    8        4.921917   1.000000
    9        5.235089   1.000000
   10        5.486502   1.000000
   11        5.509217   1.000000
   12        5.783480   1.000000
   13        5.835537   1.000000
   14        6.470783   1.000000
   15        6.807460   1.000000
   16        7.424566   1.000000
   17        7.673148   1.000000
   18        9.462349   0.000000
   19        9.805345   0.000000
   20       11.832412   0.000000
   21       12.308403   0.000000
   22       13.175062   0.000000
   23       13.374528   0.000000
   24       13.816505   0.000000
   25       14.224837   0.000000
   26       15.204215   0.000000
   27       16.635563   0.000000
   28       17.308723   0.000000
 
  0.1315789E+00  0.1315789E+00  0.0000000E+00  0.4545455E-02
    1       -4.206630   1.000000
    2       -0.001557   1.000000
    3        0.298640   1.000000
    4        0.702280   1.000000
    5        0.727331   1.000000
    6        1.849654   1.000000
    7        2.787338   1.000000
    8        4.469482   1.000000
    9        4.797584   1.000000
   10        5.143792   1.000000
   11        5.490582   1.000000
   12        6.153701   1.000000
   13        6.428169   1.000000
   14        6.633104   1.000000
   15        6.935064   1.000000
   16        7.555644   1.000000
   17        7.838177   1.000000
   18       10.117404   0.000000
   19       10.473525   0.000000
   20       12.398110   0.000000
   21       12.511558   0.000000
   22       12.821114   0.000000
   23       12.939966   0.000000
   24       13.438846   0.000000
   25       14.359859   0.000000
   26       15.063083   0.000000
   27       16.315289   0.000000
   28       17.035807   0.000000
 
  0.1578947E+00  0.1578947E+00  0.0000000E+00  0.4545455E-02
    1       -4.027127   1.000000
    2       -0.407997   1.000000
    3       -0.116425   1.000000
    4        0.877957   1.000000
    5        0.892446   1.000000
    6        2.024641   1.000000
    7        2.922215   1.000000
    8        4.045547   1.000000
    9        4.402637   1.000000
   10        4.801625   1.000000
   11        5.144799   1.000000
   12        6.628996   1.000000
   13        7.017146   1.000000
   14        7.057190   1.000000
   15        7.088697   1.000000
   16        7.714975   1.000000
   17        8.072834   1.000000
   18       10.780820   0.000000
   19       11.153485   0.000000
   20       11.539081   0.000000
   21       12.489198   0.000000
   22       13.087345   0.000000
   23       13.132231   0.000000
   24       13.635463   0.000000
   25       14.526304   0.000000
   26       14.840591   0.000000
   27       16.012072   0.000000
   28       16.370572   0.000000
 
  0.1842105E+00  0.1842105E+00  0.0000000E+00  0.4545455E-02
    1       -3.815469   1.000000
    2       -0.794999   1.000000
    3       -0.506338   1.000000
    4        1.085025   1.000000
    5        1.094722   1.000000
    6        2.229727   1.000000
    7        3.050215   1.000000
    8        3.650801   1.000000
    9        4.072830   1.000000
   10        4.471344   1.000000
   11        4.808917   1.000000
   12        6.861820   1.000000
   13        7.266376   1.000000
   14        7.597828   1.000000
   15        7.684143   1.000000
   16        7.901927   1.000000
   17        8.436850   1.000000
   18       10.634659   0.000000
   19       11.445191   0.000000
   20       11.837827   0.000000
   21       12.193557   0.000000
   22       12.772207   0.000000
   23       13.843031   0.000000
   24       14.383645   0.000000
   25       14.524310   0.000000
   26       14.725425   0.000000
   27       15.577355   0.000000
   28       15.688564   0.000000
 
  0.2105263E+00  0.2105263E+00  0.0000000E+00  0.4545455E-02
    1       -3.571975   1.000000
    2       -1.156031   1.000000
    3       -0.868703   1.000000
    4        1.323192   1.000000
    5        1.329577   1.000000
    6        2.462894   1.000000
    7        3.101943   1.000000
    8        3.285795   1.000000
    9        3.877469   1.000000
   10        4.161349   1.000000
   11        4.489665   1.000000
   12        7.072978   1.000000
   13        7.464976   1.000000
   14        7.990602   1.000000
   15        8.115623   1.000000
   16        8.396618   1.000000
   17        8.969916   0.000000
   18        9.744258   0.000000
   19       11.953574   0.000000
   20       12.099908   0.000000
   21       12.506926   0.000000
   22       12.515040   0.000000
   23       14.036995   0.000000
   24       14.648609   0.000000
   25       14.739494   0.000000
   26       14.888018   0.000000
   27       14.964781   0.000000
   28       15.215946   0.000000
 
  0.2368421E+00  0.2368421E+00  0.0000000E+00  0.4545455E-02
    1       -3.297004   1.000000
    2       -1.488668   1.000000
    3       -1.202042   1.000000
    4        1.592062   1.000000
    5        1.595532   1.000000
    6        2.718676   1.000000
    7        2.951019   1.000000
    8        2.985490   1.000000
    9        3.881124   1.000000
   10        3.908050   1.000000
   11        4.191399   1.000000
   12        7.293202   1.000000
   13        7.679366   1.000000
   14        8.291090   1.000000
   15        8.354862   1.000000
   16        8.872062   0.000671
   17        9.094239   0.000000
   18        9.575425   0.000000
   19       11.808367   0.000000
   20       12.315803   0.000000
   21       12.729984   0.000000
   22       13.166533   0.000000
   23       13.522310   0.000000
   24       13.953373   0.000000
   25       14.076696   0.000000
   26       15.108448   0.000000
   27       15.230298   0.000000
   28       15.348091   0.000000
 
  0.2631579E+00  0.2631579E+00  0.0000000E+00  0.4545455E-02
    1       -2.991056   1.000000
    2       -1.791601   1.000000
    3       -1.505376   1.000000
    4        1.891144   1.000000
    5        1.891641   1.000000
    6        2.646904   1.000000
    7        2.765166   1.000000
    8        2.974825   1.000000
    9        3.655410   1.000000
   10        3.916985   1.000000
   11        4.099391   1.000000
   12        7.520316   1.000000
   13        7.900671   1.000000
   14        8.021046   1.000000
   15        8.558296   1.000000
   16        8.617970   0.999966
   17        9.720145   0.000000
   18       10.100796   0.000000
   19       11.847873   0.000000
   20       12.248730   0.000000
   21       12.925008   0.000000
   22       13.203728   0.000000
   23       13.301171   0.000000
   24       13.315427   0.000000
   25       13.762186   0.000000
   26       14.854210   0.000000
   27       15.386301   0.000000
   28       15.511977   0.000000
 
  0.2894737E+00  0.2894737E+00  0.0000000E+00  0.4545455E-02
    1       -2.654821   1.000000
    2       -2.064011   1.000000
    3       -1.778023   1.000000
    4        2.216951   1.000000
    5        2.219784   1.000000
    6        2.373827   1.000000
    7        2.528351   1.000000
    8        3.110933   1.000000
    9        3.606190   1.000000
   10        3.668384   1.000000
   11        4.362635   1.000000
   12        7.193701   1.000000
   13        7.742913   1.000000
   14        8.112714   1.000000
   15        8.806651   0.087455
   16        8.902568   0.000024
   17       10.181884   0.000000
   18       10.404628   0.000000
   19       12.193018   0.000000
   20       12.283074   0.000000
   21       12.379975   0.000000
   22       12.510836   0.000000
   23       12.590378   0.000000
   24       13.833349   0.000000
   25       14.251978   0.000000
   26       14.624905   0.000000
   27       14.741910   0.000000
   28       15.151598   0.000000
 
  0.3157895E+00  0.3157895E+00  0.0000000E+00  0.4545455E-02
    1       -2.305324   1.000000
    2       -2.289281   1.000000
    3       -2.019476   1.000000
    4        2.132130   1.000000
    5        2.305509   1.000000
    6        2.570295   1.000000
    7        2.577123   1.000000
    8        3.008602   1.000000
    9        3.446968   1.000000
   10        3.852801   1.000000
   11        4.664937   1.000000
   12        6.392405   1.000000
   13        7.938478   1.000000
   14        8.285149   1.000000
   15        9.026520   0.000000
   16        9.205259   0.000000
   17       10.414453   0.000000
   18       10.525616   0.000000
   19       11.618432   0.000000
   20       11.907744   0.000000
   21       11.908303   0.000000
   22       12.804882   0.000000
   23       12.830614   0.000000
   24       13.957276   0.000000
   25       14.263828   0.000000
   26       14.419363   0.000000
   27       14.644106   0.000000
   28       14.935329   0.000000
 
  0.3421053E+00  0.3421053E+00  0.0000000E+00  0.4545455E-02
    1       -2.515128   1.000000
    2       -2.229357   1.000000
    3       -1.895941   1.000000
    4        1.922087   1.000000
    5        2.106544   1.000000
    6        2.847433   1.000000
    7        2.950037   1.000000
    8        2.961944   1.000000
    9        3.253689   1.000000
   10        4.216104   1.000000
   11        4.992519   1.000000
   12        5.619698   1.000000
   13        8.066729   1.000000
   14        8.364323   1.000000
   15        9.195821   0.000000
   16        9.521037   0.000000
   17       10.477548   0.000000
   18       10.615680   0.000000
   19       10.946159   0.000000
   20       11.368549   0.000000
   21       11.449839   0.000000
   22       13.238456   0.000000
   23       13.460724   0.000000
   24       13.536758   0.000000
   25       14.240681   0.000000
   26       14.597239   0.000000
   27       14.748234   0.000000
   28       14.857416   0.000000
 
  0.3684211E+00  0.3684211E+00  0.0000000E+00  0.4545455E-02
    1       -2.693103   1.000000
    2       -2.407372   1.000000
    3       -1.477259   1.000000
    4        1.743941   1.000000
    5        1.935413   1.000000
    6        2.696290   1.000000
    7        3.089251   1.000000
    8        3.353654   1.000000
    9        3.372382   1.000000
   10        4.627390   1.000000
   11        4.878871   1.000000
   12        5.335224   1.000000
   13        8.068648   1.000000
   14        8.281457   1.000000
   15        9.296685   0.000000
   16        9.842434   0.000000
   17       10.276517   0.000000
   18       10.449273   0.000000
   19       10.759783   0.000000
   20       11.020985   0.000000
   21       11.206905   0.000000
   22       12.558531   0.000000
   23       14.088666   0.000000
   24       14.187399   0.000000
   25       14.290462   0.000000
   26       14.590029   0.000000
   27       14.840865   0.000000
   28       14.968645   0.000000
 
  0.3947368E+00  0.3947368E+00  0.0000000E+00  0.4545455E-02
    1       -2.839009   1.000000
    2       -2.553296   1.000000
    3       -1.037677   1.000000
    4        1.597913   1.000000
    5        1.793991   1.000000
    6        2.568108   1.000000
    7        2.954155   1.000000
    8        3.776912   1.000000
    9        3.805368   1.000000
   10        4.174977   1.000000
   11        5.073592   1.000000
   12        5.680989   1.000000
   13        7.898186   1.000000
   14        8.010072   1.000000
   15        9.335312   0.000000
   16        9.616588   0.000000
   17       10.158151   0.000000
   18       10.344122   0.000000
   19       10.956267   0.000000
   20       10.970148   0.000000
   21       11.205768   0.000000
   22       11.934976   0.000000
   23       13.963848   0.000000
   24       14.460933   0.000000
   25       14.871847   0.000000
   26       14.937320   0.000000
   27       14.987821   0.000000
   28       15.007539   0.000000
 
  0.4210526E+00  0.4210526E+00  0.0000000E+00  0.4545455E-02
    1       -2.952667   1.000000
    2       -2.666958   1.000000
    3       -0.586249   1.000000
    4        1.484164   1.000000
    5        1.683293   1.000000
    6        2.466603   1.000000
    7        2.848757   1.000000
    8        3.517654   1.000000
    9        4.211652   1.000000
   10        4.255015   1.000000
   11        5.550474   1.000000
   12        6.011893   1.000000
   13        7.575426   1.000000
   14        7.602677   1.000000
   15        8.971367   0.000000
   16        9.336420   0.000000
   17       10.230329   0.000000
   18       10.451191   0.000000
   19       11.113950   0.000000
   20       11.217213   0.000000
   21       11.387135   0.000000
   22       11.393331   0.000000
   23       13.866386   0.000000
   24       14.258370   0.000000
   25       14.358885   0.000000
   26       14.735225   0.000000
   27       15.004689   0.000000
   28       15.098443   0.000000
 
  0.4473684E+00  0.4473684E+00  0.0000000E+00  0.4545455E-02
    1       -3.033944   1.000000
    2       -2.748232   1.000000
    3       -0.144234   1.000000
    4        1.402826   1.000000
    5        1.603898   1.000000
    6        2.393033   1.000000
    7        2.773314   1.000000
    8        2.928758   1.000000
    9        4.639312   1.000000
   10        4.707454   1.000000
   11        6.055754   1.000000
   12        6.299801   1.000000
   13        7.139648   1.000000
   14        7.177673   1.000000
   15        8.344674   1.000000
   16        9.323360   0.000000
   17       10.152317   0.000000
   18       10.697106   0.000000
   19       10.943874   0.000000
   20       11.387991   0.000000
   21       11.455974   0.000000
   22       11.686859   0.000000
   23       13.705003   0.000000
   24       13.796673   0.000000
   25       14.169345   0.000000
   26       14.286996   0.000000
   27       15.003844   0.000000
   28       15.205059   0.000000
 
  0.4736842E+00  0.4736842E+00  0.0000000E+00  0.4545455E-02
    1       -3.082743   1.000000
    2       -2.797028   1.000000
    3        0.230826   1.000000
    4        1.353986   1.000000
    5        1.556141   1.000000
    6        2.344984   1.000000
    7        2.469159   1.000000
    8        2.727983   1.000000
    9        5.008556   1.000000
   10        5.119075   1.000000
   11        6.503785   1.000000
   12        6.586658   1.000000
   13        6.708039   1.000000
   14        6.808070   1.000000
   15        7.740448   1.000000
   16        9.310722   0.000000
   17       10.108451   0.000000
   18       10.646516   0.000000
   19       10.864923   0.000000
   20       11.634350   0.000000
   21       11.689537   0.000000
   22       11.994813   0.000000
   23       13.248746   0.000000
   24       13.711223   0.000000
   25       13.754832   0.000000
   26       14.243723   0.000000
   27       14.984864   0.000000
   28       15.208063   0.000000
 
  0.5000000E+00  0.5000000E+00  0.0000000E+00  0.4545455E-02
    1       -3.099017   1.000000
    2       -2.813300   1.000000
    3        0.396894   1.000000
    4        1.337699   1.000000
    5        1.540200   1.000000
    6        2.260100   1.000000
    7        2.343728   1.000000
    8        2.712863   1.000000
    9        5.177361   1.000000
   10        5.325370   1.000000
   11        6.493085   1.000000
   12        6.578894   1.000000
   13        6.636389   1.000000
   14        7.074144   1.000000
   15        7.228451   1.000000
   16        9.305782   0.000000
   17       10.094268   0.000000
   18       10.540264   0.000000
   19       10.925105   0.000000
   20       11.701561   0.000000
   21       11.848818   0.000000
   22       12.150130   0.000000
   23       13.039806   0.000000
   24       13.507681   0.000000
   25       13.740852   0.000000
   26       14.229866   0.000000
   27       14.977772   0.000000
   28       15.225553   0.000000
 
  0.5000000E+00  0.5000000E+00  0.0000000E+00  0.4545455E-02
    1       -3.099017   1.000000
    2       -2.813300   1.000000
    3        0.396894   1.000000
    4        1.337699   1.000000
    5        1.540200   1.000000
    6        2.260100   1.000000
    7        2.343728   1.000000
    8        2.712863   1.000000
    9        5.177361   1.000000
   10        5.325370   1.000000
   11        6.493085   1.000000
   12        6.578894   1.000000
   13        6.636389   1.000000
   14        7.074144   1.000000
   15        7.228451   1.000000
   16        9.305782   0.000000
   17       10.094268   0.000000
   18       10.540264   0.000000
   19       10.925105   0.000000
   20       11.701561   0.000000
   21       11.848818   0.000000
   22       12.150129   0.000000
   23       13.039803   0.000000
   24       13.507687   0.000000
   25       13.740821   0.000000
   26       14.229372   0.000000
   27       15.077278   0.000000
   28       15.223500   0.000000
 
  0.4905072E+00  0.5094928E+00  0.0000000E+00  0.4545455E-02
    1       -3.111503   1.000000
    2       -2.799661   1.000000
    3        0.397466   1.000000
    4        1.335529   1.000000
    5        1.536352   1.000000
    6        2.260654   1.000000
    7        2.348624   1.000000
    8        2.716162   1.000000
    9        5.177808   1.000000
   10        5.325937   1.000000
   11        6.493394   1.000000
   12        6.559246   1.000000
   13        6.636750   1.000000
   14        7.070557   1.000000
   15        7.249009   1.000000
   16        9.278186   0.000000
   17       10.116241   0.000000
   18       10.544914   0.000000
   19       10.915303   0.000000
   20       11.664362   0.000000
   21       11.893111   0.000000
   22       12.160752   0.000000
   23       13.034779   0.000000
   24       13.502018   0.000000
   25       13.723056   0.000000
   26       14.195220   0.000000
   27       15.019186   0.000000
   28       15.246697   0.000000
 
  0.4810145E+00  0.5189855E+00  0.0000000E+00  0.4545455E-02
    1       -3.143640   1.000000
    2       -2.764062   1.000000
    3        0.399176   1.000000
    4        1.329083   1.000000
    5        1.525084   1.000000
    6        2.262314   1.000000
    7        2.363033   1.000000
    8        2.725993   1.000000
    9        5.179147   1.000000
   10        5.327639   1.000000
   11        6.494318   1.000000
   12        6.506353   1.000000
   13        6.637830   1.000000
   14        7.059856   1.000000
   15        7.304633   1.000000
   16        9.203844   0.000000
   17       10.172851   0.000000
   18       10.558808   0.000000
   19       10.886859   0.000000
   20       11.601933   0.000000
   21       11.977659   0.000000
   22       12.191638   0.000000
   23       13.019874   0.000000
   24       13.485291   0.000000
   25       13.672201   0.000000
   26       14.107183   0.000000
   27       15.111985   0.000000
   28       15.259916   0.000000
 
  0.4715217E+00  0.5284783E+00  0.0000000E+00  0.4545455E-02
    1       -3.186621   1.000000
    2       -2.715314   1.000000
    3        0.402030   1.000000
    4        1.318548   1.000000
    5        1.507151   1.000000
    6        2.265083   1.000000
    7        2.386202   1.000000
    8        2.742173   1.000000
    9        5.181373   1.000000
   10        5.330474   1.000000
   11        6.431796   1.000000
   12        6.495862   1.000000
   13        6.639630   1.000000
   14        7.042212   1.000000
   15        7.383729   1.000000
   16        9.098741   0.000000
   17       10.245468   0.000000
   18       10.581771   0.000000
   19       10.842260   0.000000
   20       11.545817   0.000000
   21       12.073573   0.000000
   22       12.240301   0.000000
   23       12.995567   0.000000
   24       13.458128   0.000000
   25       13.594202   0.000000
   26       13.988933   0.000000
   27       15.221715   0.000000
   28       15.324008   0.000000
 
  0.4620290E+00  0.5379710E+00  0.0000000E+00  0.4545455E-02
    1       -3.234759   1.000000
    2       -2.659100   1.000000
    3        0.406023   1.000000
    4        1.304210   1.000000
    5        1.483587   1.000000
    6        2.268958   1.000000
    7        2.417091   1.000000
    8        2.764414   1.000000
    9        5.184476   1.000000
   10        5.334444   1.000000
   11        6.344766   1.000000
   12        6.498015   1.000000
   13        6.642143   1.000000
   14        7.017899   1.000000
   15        7.477112   1.000000
   16        8.975347   0.000000
   17       10.317103   0.000000
   18       10.613530   0.000000
   19       10.784649   0.000000
   20       11.506360   0.000000
   21       12.175001   0.000000
   22       12.303593   0.000000
   23       12.962584   0.000000
   24       13.421515   0.000000
   25       13.495760   0.000000
   26       13.855199   0.000000
   27       15.254086   0.000000
   28       15.447724   0.000000
 
  0.4525362E+00  0.5474638E+00  0.0000000E+00  0.4545455E-02
    1       -3.285186   1.000000
    2       -2.598291   1.000000
    3        0.411151   1.000000
    4        1.286431   1.000000
    5        1.455501   1.000000
    6        2.273941   1.000000
    7        2.454577   1.000000
    8        2.792353   1.000000
    9        5.188445   1.000000
   10        5.339547   1.000000
   11        6.250761   1.000000
   12        6.500776   1.000000
   13        6.645367   1.000000
   14        6.987272   1.000000
   15        7.579246   1.000000
   16        8.841122   0.009861
   17       10.374425   0.000000
   18       10.653715   0.000000
   19       10.717076   0.000000
   20       11.491310   0.000000
   21       12.280062   0.000000
   22       12.378463   0.000000
   23       12.921816   0.000000
   24       13.376577   0.000000
   25       13.382657   0.000000
   26       13.713544   0.000000
   27       15.223066   0.000000
   28       15.390259   0.000000
 
  0.4430435E+00  0.5569565E+00  0.0000000E+00  0.4545455E-02
    1       -3.336467   1.000000
    2       -2.534323   1.000000
    3        0.417411   1.000000
    4        1.265616   1.000000
    5        1.423942   1.000000
    6        2.280032   1.000000
    7        2.497607   1.000000
    8        2.825587   1.000000
    9        5.193262   1.000000
   10        5.345783   1.000000
   11        6.152905   1.000000
   12        6.504140   1.000000
   13        6.649297   1.000000
   14        6.950756   1.000000
   15        7.687012   1.000000
   16        8.700307   0.950658
   17       10.407882   0.000000
   18       10.642019   0.000000
   19       10.701985   0.000000
   20       11.506860   0.000000
   21       12.387854   0.000000
   22       12.462336   0.000000
   23       12.874228   0.000000
   24       13.259199   0.000000
   25       13.324540   0.000000
   26       13.567672   0.000000
   27       15.153262   0.000000
   28       15.504366   0.000000
 
  0.4335507E+00  0.5664493E+00  0.0000000E+00  0.4545455E-02
    1       -3.387843   1.000000
    2       -2.467957   1.000000
    3        0.424795   1.000000
    4        1.242179   1.000000
    5        1.389811   1.000000
    6        2.287228   1.000000
    7        2.545258   1.000000
    8        2.863696   1.000000
    9        5.198904   1.000000
   10        5.353153   1.000000
   11        6.052971   1.000000
   12        6.508099   1.000000
   13        6.653926   1.000000
   14        6.908806   1.000000
   15        7.798600   1.000000
   16        8.555378   1.000000
   17       10.413221   0.000000
   18       10.561616   0.000000
   19       10.757735   0.000000
   20       11.555282   0.000000
   21       12.497849   0.000000
   22       12.553193   0.000000
   23       12.820796   0.000000
   24       13.128477   0.000000
   25       13.266587   0.000000
   26       13.419709   0.000000
   27       15.104648   0.000000
   28       15.519575   0.000000
 
  0.4240580E+00  0.5759420E+00  0.0000000E+00  0.4545455E-02
    1       -3.438882   1.000000
    2       -2.399622   1.000000
    3        0.433295   1.000000
    4        1.216535   1.000000
    5        1.353860   1.000000
    6        2.295529   1.000000
    7        2.596772   1.000000
    8        2.906275   1.000000
    9        5.205341   1.000000
   10        5.361652   1.000000
   11        5.952040   1.000000
   12        6.512646   1.000000
   13        6.659247   1.000000
   14        6.861920   1.000000
   15        7.912908   1.000000
   16        8.407875   1.000000
   17       10.392096   0.000000
   18       10.477287   0.000000
   19       10.820566   0.000000
   20       11.633731   0.000000
   21       12.609690   0.000000
   22       12.649502   0.000000
   23       12.762444   0.000000
   24       12.992606   0.000000
   25       13.203801   0.000000
   26       13.270810   0.000000
   27       15.063348   0.000000
   28       15.581001   0.000000
 
  0.4145652E+00  0.5854348E+00  0.0000000E+00  0.4545455E-02
    1       -3.489328   1.000000
    2       -2.329580   1.000000
    3        0.442902   1.000000
    4        1.189072   1.000000
    5        1.316690   1.000000
    6        2.304936   1.000000
    7        2.651514   1.000000
    8        2.952922   1.000000
    9        5.212543   1.000000
   10        5.371286   1.000000
   11        5.850796   1.000000
   12        6.517773   1.000000
   13        6.665252   1.000000
   14        6.810582   1.000000
   15        8.029206   1.000000
   16        8.258811   1.000000
   17       10.349797   0.000000
   18       10.390170   0.000000
   19       10.889972   0.000000
   20       11.736139   0.000000
   21       12.700020   0.000000
   22       12.723128   0.000000
   23       12.750108   0.000000
   24       12.853082   0.000000
   25       13.121728   0.000000
   26       13.137154   0.000000
   27       15.014577   0.000000
   28       15.712476   0.000000
 
  0.4050725E+00  0.5949275E+00  0.0000000E+00  0.4545455E-02
    1       -3.539017   1.000000
    2       -2.257996   1.000000
    3        0.453602   1.000000
    4        1.160148   1.000000