       N       E                     dE             d eps       ncg     rms          rms(c)
DAV:   1     0.519632268757E+02    0.51963E+02   -0.12476E+04 12320   0.971E+02
DAV:   2    -0.383901055208E+02   -0.90353E+02   -0.83426E+02 15132   0.142E+02
DAV:   3    -0.422978643263E+02   -0.39078E+01   -0.38085E+01 15880   0.251E+01
DAV:   4    -0.423367572710E+02   -0.38893E-01   -0.38795E-01 15148   0.314E+00
DAV:   5    -0.423370939253E+02   -0.33665E-03   -0.33658E-03 15200   0.277E-01
DAV:   6    -0.423370980377E+02   -0.41124E-05   -0.41117E-05 12592   0.328E-02
   1 F= -.42337098E+02 E0= -.42335466E+02  d E =-.326316E-02
