 vasp.5.4.1 24Jun15 (build Nov 23 2015 09:58:10) complex                        
  
 executed on             LinuxIFC date 2020.11.17  18:34:34
 running on   48 total cores
 distrk:  each k-point on   48 cores,    1 groups
 distr:  one band on NCORES_PER_BAND=  12 cores,    4 groups


--------------------------------------------------------------------------------------------------------


 INCAR:
 POTCAR:    PAW_PBE Si 05Jan2001                  
 POTCAR:    PAW_PBE Si 05Jan2001                  
   VRHFIN =Si: s2p2                                                             
   LEXCH  = PE                                                                  
   EATOM  =   103.0669 eV,    7.5752 Ry                                         
                                                                                
   TITEL  = PAW_PBE Si 05Jan2001                                                
   LULTRA =        F    use ultrasoft PP ?                                      
   IUNSCR =        1    unscreen: 0-lin 1-nonlin 2-no                           
   RPACOR =    1.500    partial core radius                                     
   POMASS =   28.085; ZVAL   =    4.000    mass and valenz                      
   RCORE  =    1.900    outmost cutoff radius                                   
   RWIGS  =    2.480; RWIGS  =    1.312    wigner-seitz radius (au A)           
   ENMAX  =  245.345; ENMIN  =  184.009 eV                                      
   ICORE  =        2    local potential                                         
   LCOR   =        T    correct aug charges                                     
   LPAW   =        T    paw PP                                                  
   EAUG   =  322.069                                                            
   DEXC   =    0.000                                                            
   RMAX   =    1.950    core radius for proj-oper                               
   RAUG   =    1.300    factor for augmentation sphere                          
   RDEP   =    1.993    radius for radial grids                                 
   RDEPT  =    1.837    core radius for aug-charge                              
                                                                                
   Atomic configuration                                                         
    6 entries                                                                   
     n  l   j            E        occ.                                          
     1  0  0.50     -1785.8828   2.0000                                         
     2  0  0.50      -139.4969   2.0000                                         
     2  1  1.50       -95.5546   6.0000                                         
     3  0  0.50       -10.8127   2.0000                                         
     3  1  0.50        -4.0811   2.0000                                         
     3  2  1.50        -4.0817   0.0000                                         
   Description                                                                  
     l       E           TYP  RCUT    TYP  RCUT                                 
     0    -10.8127223     23  1.900                                             
     0     -7.6451159     23  1.900                                             
     1     -4.0811372     23  1.900                                             
     1      2.4879257     23  1.900                                             
     2     -4.0817478      7  1.900                                             
  local pseudopotential read in
  partial core-charges read in
  partial kinetic energy density read in
  atomic valenz-charges read in
  non local Contribution for L=           0  read in
    real space projection operators read in
  non local Contribution for L=           0  read in
    real space projection operators read in
  non local Contribution for L=           1  read in
    real space projection operators read in
  non local Contribution for L=           1  read in
    real space projection operators read in
    PAW grid and wavefunctions read in
 
   number of l-projection  operators is LMAX  =           4
   number of lm-projection operators is LMMAX =           8
 

 ----------------------------------------------------------------------------- 
|                                                                             |
|  ADVICE TO THIS USER RUNNING 'VASP/VAMP'   (HEAR YOUR MASTER'S VOICE ...):  |
|                                                                             |
|      You have a (more or less) 'small supercell' and for smaller cells      |
|      it is recommended  to use the reciprocal-space projection scheme!      |
|      The real space optimization is not  efficient for small cells and it   |
|      is also less accurate ...                                              |
|      Therefore set LREAL=.FALSE. in the  INCAR file                         |
|                                                                             |
 ----------------------------------------------------------------------------- 

 Optimization of the real space projectors (new method)

 maximal supplied QI-value         = 19.84
 optimisation between [QCUT,QGAM] = [ 11.51, 23.22] = [ 37.09,150.92] Ry 
 Optimized for a Real-space Cutoff    1.21 Angstroem

   l    n(q)    QCUT    max X(q) W(low)/X(q) W(high)/X(q)  e(spline) 
   0      8    11.508   159.560    0.71E-04    0.15E-03    0.51E-07
   0      8    11.508   115.863    0.70E-04    0.15E-03    0.51E-07
   1      8    11.508    88.339    0.16E-03    0.38E-04    0.82E-07
   1      8    11.508    48.592    0.15E-03    0.36E-04    0.79E-07
  PAW_PBE Si 05Jan2001                  :
 energy of atom  1       EATOM= -103.0669
 kinetic energy error for atom=    0.0005 (will be added to EATOM!!)
 
 
 POSCAR: Si8                                     
  positions in direct lattice
  velocities in cartesian coordinates
 exchange correlation table for  LEXCH =        8
   RHO(1)=    0.500       N(1)  =     2000
   RHO(2)=  100.500       N(2)  =     4000
 


--------------------------------------------------------------------------------------------------------


 ion  position               nearest neighbor table
   1  0.500  0.500  0.772-   2 2.45   4 2.47   4 2.47   5 2.54   7 2.54   8 2.85   6 2.85   2 2.91

   2  0.500  0.500  0.228-   1 2.45   3 2.47   3 2.47   5 2.54   7 2.54   6 2.85   8 2.85   1 2.91

   3  1.000  1.000  0.272-   4 2.45   2 2.47   2 2.47   6 2.54   8 2.54   7 2.85   5 2.85   4 2.91

   4  0.000  0.000  0.728-   3 2.45   1 2.47   1 2.47   6 2.54   8 2.54   5 2.85   7 2.85   3 2.91

   5  0.724  0.276  0.500-   7 2.50   7 2.50   2 2.54   1 2.54   8 2.73   8 2.73   4 2.85   3 2.85

   6  0.224  0.776  0.000-   8 2.50   8 2.50   3 2.54   4 2.54   7 2.73   7 2.73   2 2.85   1 2.85

   7  0.276  0.724  0.500-   5 2.50   5 2.50   2 2.54   1 2.54   6 2.73   6 2.73   3 2.85   4 2.85

   8  0.776  0.224  0.000-   6 2.50   6 2.50   3 2.54   4 2.54   5 2.73   5 2.73   1 2.85   2 2.85

 

IMPORTANT INFORMATION: All symmetrisations will be switched off!
NOSYMM: (Re-)initialisation of all symmetry stuff for point group C_1.

 
 
 KPOINTS: k-points along high symmetry lines      
  interpolating k-points between supplied coordinates
  k-points in reciprocal lattice
Space group operators:
 irot       det(A)        alpha          n_x          n_y          n_z        tau_x        tau_y        tau_z
    1     1.000000     0.000001     1.000000     0.000000     0.000000     0.000000     0.000000     0.000000


--------------------------------------------------------------------------------------------------------




 Dimension of arrays:
   k-points           NKPTS =    220   k-points in BZ     NKDIM =    220   number of bands    NBANDS=     28
   number of dos      NEDOS =    301   number of ions     NIONS =      8
   non local maximal  LDIM  =      4   non local SUM 2l+1 LMDIM =      8
   total plane-waves  NPLWV =  64000
   max r-space proj   IRMAX =   3933   max aug-charges    IRDMAX= 139897
   dimension x,y,z NGX =    40 NGY =   40 NGZ =   40
   dimension x,y,z NGXF=    80 NGYF=   80 NGZF=   80
   support grid    NGXF=   160 NGYF=  160 NGZF=  160
   ions per type =               8
 NGX,Y,Z   is equivalent  to a cutoff of  12.64, 12.64, 12.40 a.u.
 NGXF,Y,Z  is equivalent  to a cutoff of  25.28, 25.28, 24.81 a.u.


 I would recommend the setting:
   dimension x,y,z NGX =    39 NGY =   39 NGZ =   40
 SYSTEM =  matgen-band                             
 POSCAR =  Si8                                     

 Startparameter for this run:
   NWRITE =      2    write-flag & timer
   PREC   = accura    normal or accurate (medium, high low for compatibility)
   ISTART =      0    job   : 0-new  1-cont  2-samecut
   ICHARG =     11    charge: 1-file 2-atom 10-const
   ISPIN  =      1    spin polarized calculation?
   LNONCOLLINEAR =      F non collinear calculations
   LSORBIT =      F    spin-orbit coupling
   INIWAV =      1    electr: 0-lowe 1-rand  2-diag
   LASPH  =      F    aspherical Exc in radial PAW
   METAGGA=      F    non-selfconsistent MetaGGA calc.

 Electronic Relaxation 1
   ENCUT  =  520.0 eV  38.22 Ry    6.18 a.u.   9.78  9.78  9.97*2*pi/ulx,y,z
   ENINI  =  520.0     initial cutoff
   ENAUG  =  322.1 eV  augmentation charge cutoff
   NELM   =    140;   NELMIN=  6; NELMDL=  0     # of ELM steps 
   EDIFF  = 0.1E-03   stopping-criterion for ELM
   LREAL  =      T    real-space projection
   NLSPLINE    = F    spline interpolate recip. space projectors
   LCOMPAT=      F    compatible to vasp.4.4
   GGA_COMPAT  = T    GGA compatible to vasp.4.4-vasp.4.6
   LMAXPAW     = -100 max onsite density
   LMAXMIX     =    2 max onsite mixed and CHGCAR
   VOSKOWN=      0    Vosko Wilk Nusair interpolation
   ROPT   =   -0.00025
 Ionic relaxation
   EDIFFG = -.1E-02   stopping-criterion for IOM
   NSW    =      0    number of steps for IOM
   NBLOCK =      1;   KBLOCK =      1    inner block; outer block 
   IBRION =     -1    ionic relax: 0-MD 1-quasi-New 2-CG
   NFREE  =      0    steps in history (QN), initial steepest desc. (CG)
   ISIF   =      0    stress and relaxation
   IWAVPR =     10    prediction:  0-non 1-charg 2-wave 3-comb
   ISYM   =      0    0-nonsym 1-usesym 2-fastsym
   LCORR  =      T    Harris-Foulkes like correction to forces

   POTIM  = 0.0500    time-step for ionic-motion
   TEIN   =    0.0    initial temperature
   TEBEG  =    0.0;   TEEND  =   0.0 temperature during run
   SMASS  =  -3.00    Nose mass-parameter (am)
   estimated Nose-frequenzy (Omega)   =  0.10E-29 period in steps =****** mass=  -0.633E-27a.u.
   SCALEE = 1.0000    scale energy and forces
   NPACO  =    256;   APACO  = 16.0  distance and # of slots for P.C.
   PSTRESS=    0.0 pullay stress

  Mass of Ions in am
   POMASS =  28.09
  Ionic Valenz
   ZVAL   =   4.00
  Atomic Wigner-Seitz radii
   RWIGS  =  -1.00
  virtual crystal weights 
   VCA    =   1.00
   NELECT =      32.0000    total number of electrons
   NUPDOWN=      -1.0000    fix difference up-down

 DOS related values:
   EMIN   =  10.00;   EMAX   =-10.00  energy-range for DOS
   EFERMI =   0.00
   ISMEAR =     0;   SIGMA  =   0.05  broadening in eV -4-tet -1-fermi 0-gaus

 Electronic relaxation 2 (details)
   IALGO  =     38    algorithm
   LDIAG  =      T    sub-space diagonalisation (order eigenvalues)
   LSUBROT=      F    optimize rotation matrix (better conditioning)
   TURBO    =      0    0=normal 1=particle mesh
   IRESTART =      0    0=no restart 2=restart with 2 vectors
   NREBOOT  =      0    no. of reboots
   NMIN     =      0    reboot dimension
   EREF     =   0.00    reference energy to select bands
   IMIX   =      4    mixing-type and parameters
     AMIX     =   0.10;   BMIX     =  1.20
     AMIX_MAG =   0.40;   BMIX_MAG =  1.20
     AMIN     =   0.10
     WC   =   100.;   INIMIX=   1;  MIXPRE=   1;  MAXMIX= -45

 Intra band minimization:
   WEIMIN = 0.0000     energy-eigenvalue tresh-hold
   EBREAK =  0.89E-06  absolut break condition
   DEPER  =   0.30     relativ break condition  

   TIME   =   0.40     timestep for ELM

  volume/ion in A,a.u.               =      15.32       103.36
  Fermi-wavevector in a.u.,A,eV,Ry     =   1.046440  1.977485 14.898879  1.095037
  Thomas-Fermi vector in A             =   2.181278
 
 Write flags
   LWAVE  =      F    write WAVECAR
   LCHARG =      F    write CHGCAR
   LVTOT  =      F    write LOCPOT, total local potential
   LVHAR  =      F    write LOCPOT, Hartree potential only
   LELF   =      F    write electronic localiz. function (ELF)
   LORBIT =     11    0 simple, 1 ext, 2 COOP (PROOUT)


 Dipole corrections
   LMONO  =      F    monopole corrections only (constant potential shift)
   LDIPOL =      F    correct potential (dipole corrections)
   IDIPOL =      0    1-x, 2-y, 3-z, 4-all directions 
   EPSILON=  1.0000000 bulk dielectric constant

 Exchange correlation treatment:
   GGA     =    --    GGA type
   LEXCH   =     8    internal setting for exchange type
   VOSKOWN=      0    Vosko Wilk Nusair interpolation
   LHFCALC =     F    Hartree Fock is set to
   LHFONE  =     F    Hartree Fock one center treatment
   AEXX    =    0.0000 exact exchange contribution

 Linear response parameters
   LEPSILON=     F    determine dielectric tensor
   LRPA    =     F    only Hartree local field effects (RPA)
   LNABLA  =     F    use nabla operator in PAW spheres
   LVEL    =     F    velocity operator in full k-point grid
   LINTERFAST=   F  fast interpolation
   KINTER  =     0    interpolate to denser k-point grid
   CSHIFT  =0.1000    complex shift for real part using Kramers Kronig
   OMEGAMAX=  -1.0    maximum frequency
   DEG_THRESHOLD= 0.2000000E-02 threshold for treating states as degnerate
   RTIME   =    0.100 relaxation time in fs

 Orbital magnetization related:
   ORBITALMAG=     F  switch on orbital magnetization
   LCHIMAG   =     F  perturbation theory with respect to B field
   DQ        =  0.001000  dq finite difference perturbation B field



--------------------------------------------------------------------------------------------------------


 Static calculation
 charge density and potential remain constant during run
 non-spin polarized calculation
 Variant of blocked Davidson
 Davidson routine will perform the subspace rotation
 perform sub-space diagonalisation
    after iterative eigenvector-optimisation
 no mixing
 using additional bands           12
 real space projection scheme for non local part
 use partial core corrections
 calculate Harris-corrections to forces 
   (improved forces if not selfconsistent)
 use gradient corrections 
 WARNING: stress and forces are not correct
  (second derivative of E(xc) not defined)
 use of overlap-Matrix (Vanderbilt PP)
 Gauss-broadening in eV      SIGMA  =   0.05


--------------------------------------------------------------------------------------------------------


  energy-cutoff  :      520.00
  volume of cell :      122.53
      direct lattice vectors                 reciprocal lattice vectors
     2.455883162 -4.653239982 -0.000000005     0.203592748 -0.107452012  0.000000000
     2.455883161  4.653239994  0.000000010     0.203592747  0.107452012 -0.000000000
    -0.000000001  0.000000016  5.360907350    -0.000000000 -0.000000000  0.186535587

  length of vectors
     5.261559126  5.261559136  5.360907350     0.230208475  0.230208474  0.186535587


 
 k-points in units of 2pi/SCALE and weight: k-points along high symmetry lines      
   0.00000000  0.00000000  0.00000000       0.005
   0.01071541  0.00000000  0.00000000       0.005
   0.02143082  0.00000000  0.00000000       0.005
   0.03214622  0.00000000  0.00000000       0.005
   0.04286163  0.00000000  0.00000000       0.005
   0.05357704  0.00000000  0.00000000       0.005
   0.06429245  0.00000000  0.00000000       0.005
   0.07500785  0.00000000  0.00000000       0.005
   0.08572326  0.00000000  0.00000000       0.005
   0.09643867  0.00000000  0.00000000       0.005
   0.10715408  0.00000000  0.00000000       0.005
   0.11786949  0.00000000  0.00000000       0.005
   0.12858489  0.00000000  0.00000000       0.005
   0.13930030  0.00000000  0.00000000       0.005
   0.15001571  0.00000000  0.00000000       0.005
   0.16073112  0.00000000  0.00000000       0.005
   0.17144652  0.00000000  0.00000000       0.005
   0.18216193  0.00000000  0.00000000       0.005
   0.19287734  0.00000000  0.00000000       0.005
   0.20359275  0.00000000  0.00000000       0.005
   0.20359275  0.00000000  0.00000000       0.005
   0.20359275  0.00204003  0.00000000       0.005
   0.20359275  0.00408006  0.00000000       0.005
   0.20359275  0.00612009  0.00000000       0.005
   0.20359275  0.00816012  0.00000000       0.005
   0.20359275  0.01020015  0.00000000       0.005
   0.20359275  0.01224018  0.00000000       0.005
   0.20359275  0.01428021  0.00000000       0.005
   0.20359275  0.01632024 -0.00000000       0.005
   0.20359275  0.01836028 -0.00000000       0.005
   0.20359275  0.02040031 -0.00000000       0.005
   0.20359275  0.02244034 -0.00000000       0.005
   0.20359275  0.02448037 -0.00000000       0.005
   0.20359275  0.02652040 -0.00000000       0.005
   0.20359275  0.02856043 -0.00000000       0.005
   0.20359275  0.03060046 -0.00000000       0.005
   0.20359275  0.03264049 -0.00000000       0.005
   0.20359275  0.03468052 -0.00000000       0.005
   0.20359275  0.03672055 -0.00000000       0.005
   0.20359275  0.03876058 -0.00000000       0.005
  -0.00000000  0.06869143 -0.00000000       0.005
  -0.00000000  0.06507609 -0.00000000       0.005
  -0.00000000  0.06146075 -0.00000000       0.005
  -0.00000000  0.05784542 -0.00000000       0.005
  -0.00000000  0.05423008 -0.00000000       0.005
  -0.00000000  0.05061474 -0.00000000       0.005
  -0.00000000  0.04699940 -0.00000000       0.005
  -0.00000000  0.04338406 -0.00000000       0.005
  -0.00000000  0.03976872 -0.00000000       0.005
  -0.00000000  0.03615338 -0.00000000       0.005
  -0.00000000  0.03253805 -0.00000000       0.005
  -0.00000000  0.02892271 -0.00000000       0.005
  -0.00000000  0.02530737 -0.00000000       0.005
  -0.00000000  0.02169203 -0.00000000       0.005
  -0.00000000  0.01807669 -0.00000000       0.005
  -0.00000000  0.01446135 -0.00000000       0.005
  -0.00000000  0.01084602 -0.00000000       0.005
  -0.00000000  0.00723068 -0.00000000       0.005
  -0.00000000  0.00361534 -0.00000000       0.005
   0.00000000  0.00000000  0.00000000       0.005
   0.00000000  0.00000000  0.00000000       0.005
  -0.00000000 -0.00000000  0.00490883       0.005
  -0.00000000 -0.00000000  0.00981766       0.005
  -0.00000000 -0.00000000  0.01472649       0.005
  -0.00000000 -0.00000000  0.01963532       0.005
  -0.00000000 -0.00000000  0.02454416       0.005
  -0.00000000 -0.00000000  0.02945299       0.005
  -0.00000000 -0.00000000  0.03436182       0.005
  -0.00000000 -0.00000000  0.03927065       0.005
  -0.00000000 -0.00000000  0.04417948       0.005
  -0.00000000 -0.00000000  0.04908831       0.005
  -0.00000000 -0.00000000  0.05399714       0.005
  -0.00000000 -0.00000000  0.05890597       0.005
  -0.00000000 -0.00000000  0.06381481       0.005
  -0.00000000 -0.00000000  0.06872364       0.005
  -0.00000000 -0.00000000  0.07363247       0.005
  -0.00000000 -0.00000000  0.07854130       0.005
  -0.00000000 -0.00000000  0.08345013       0.005
  -0.00000000 -0.00000000  0.08835896       0.005
  -0.00000000 -0.00000000  0.09326779       0.005
  -0.00000000 -0.00000000  0.09326779       0.005
  -0.00000000  0.00361534  0.09326779       0.005
  -0.00000000  0.00723068  0.09326779       0.005
  -0.00000000  0.01084602  0.09326779       0.005
  -0.00000000  0.01446135  0.09326779       0.005
  -0.00000000  0.01807669  0.09326779       0.005
  -0.00000000  0.02169203  0.09326779       0.005
  -0.00000000  0.02530737  0.09326779       0.005
  -0.00000000  0.02892271  0.09326779       0.005
  -0.00000000  0.03253805  0.09326779       0.005
  -0.00000000  0.03615338  0.09326779       0.005
  -0.00000000  0.03976872  0.09326779       0.005
  -0.00000000  0.04338406  0.09326779       0.005
  -0.00000000  0.04699940  0.09326779       0.005
  -0.00000000  0.05061474  0.09326779       0.005
  -0.00000000  0.05423008  0.09326779       0.005
  -0.00000000  0.05784542  0.09326779       0.005
  -0.00000000  0.06146075  0.09326779       0.005
  -0.00000000  0.06507609  0.09326779       0.005
  -0.00000000  0.06869143  0.09326779       0.005
   0.20359275  0.03876058  0.09326779       0.005
   0.20359275  0.03672055  0.09326779       0.005
   0.20359275  0.03468052  0.09326779       0.005
   0.20359275  0.03264049  0.09326779       0.005
   0.20359275  0.03060046  0.09326779       0.005
   0.20359275  0.02856043  0.09326779       0.005
   0.20359275  0.02652040  0.09326779       0.005
   0.20359275  0.02448037  0.09326779       0.005
   0.20359275  0.02244034  0.09326779       0.005
   0.20359275  0.02040031  0.09326779       0.005
   0.20359275  0.01836028  0.09326779       0.005
   0.20359275  0.01632024  0.09326779       0.005
   0.20359275  0.01428021  0.09326779       0.005
   0.20359275  0.01224018  0.09326779       0.005
   0.20359275  0.01020015  0.09326779       0.005
   0.20359275  0.00816012  0.09326779       0.005
   0.20359275  0.00612009  0.09326779       0.005
   0.20359275  0.00408006  0.09326779       0.005
   0.20359275  0.00204003  0.09326779       0.005
   0.20359275 -0.00000000  0.09326779       0.005
   0.20359275 -0.00000000  0.09326779       0.005
   0.20359275 -0.00000000  0.08835896       0.005
   0.20359275 -0.00000000  0.08345013       0.005
   0.20359275 -0.00000000  0.07854130       0.005
   0.20359275 -0.00000000  0.07363247       0.005
   0.20359275 -0.00000000  0.06872364       0.005
   0.20359275 -0.00000000  0.06381481       0.005
   0.20359275 -0.00000000  0.05890597       0.005
   0.20359275 -0.00000000  0.05399714       0.005
   0.20359275 -0.00000000  0.04908831       0.005
   0.20359275 -0.00000000  0.04417948       0.005
   0.20359275 -0.00000000  0.03927065       0.005
   0.20359275 -0.00000000  0.03436182       0.005
   0.20359275 -0.00000000  0.02945299       0.005
   0.20359275 -0.00000000  0.02454416       0.005
   0.20359275 -0.00000000  0.01963533       0.005
   0.20359275 -0.00000000  0.01472649       0.005
   0.20359275 -0.00000000  0.00981766       0.005
   0.20359275  0.00000000  0.00490883       0.005
   0.20359275  0.00000000  0.00000000       0.005
   0.00000000  0.00000000  0.00000000       0.005
   0.00535770  0.00282768 -0.00000000       0.005
   0.01071541  0.00565537 -0.00000000       0.005
   0.01607311  0.00848305 -0.00000000       0.005
   0.02143082  0.01131074 -0.00000000       0.005
   0.02678852  0.01413842 -0.00000000       0.005
   0.03214622  0.01696611 -0.00000000       0.005
   0.03750393  0.01979379 -0.00000000       0.005
   0.04286163  0.02262148 -0.00000000       0.005
   0.04821933  0.02544916 -0.00000000       0.005
   0.05357704  0.02827685 -0.00000000       0.005
   0.05893474  0.03110453 -0.00000000       0.005
   0.06429245  0.03393221 -0.00000000       0.005
   0.06965015  0.03675990 -0.00000000       0.005
   0.07500785  0.03958758 -0.00000000       0.005
   0.08036556  0.04241527 -0.00000000       0.005
   0.08572326  0.04524295 -0.00000000       0.005
   0.09108097  0.04807064 -0.00000000       0.005
   0.09643867  0.05089832 -0.00000000       0.005
   0.10179637  0.05372601 -0.00000000       0.005
   0.10179637  0.05372601 -0.00000000       0.005
   0.10179637  0.05372601  0.00490883       0.005
   0.10179637  0.05372601  0.00981766       0.005
   0.10179637  0.05372601  0.01472649       0.005
   0.10179637  0.05372601  0.01963532       0.005
   0.10179637  0.05372601  0.02454416       0.005
   0.10179637  0.05372601  0.02945299       0.005
   0.10179637  0.05372601  0.03436182       0.005
   0.10179637  0.05372601  0.03927065       0.005
   0.10179637  0.05372601  0.04417948       0.005
   0.10179637  0.05372601  0.04908831       0.005
   0.10179637  0.05372601  0.05399714       0.005
   0.10179637  0.05372601  0.05890597       0.005
   0.10179637  0.05372601  0.06381481       0.005
   0.10179637  0.05372601  0.06872364       0.005
   0.10179637  0.05372601  0.07363247       0.005
   0.10179637  0.05372601  0.07854130       0.005
   0.10179637  0.05372601  0.08345013       0.005
   0.10179637  0.05372601  0.08835896       0.005
   0.10179637  0.05372601  0.09326779       0.005
   0.10179637  0.05372601  0.09326779       0.005
   0.09643867  0.05089832  0.09326779       0.005
   0.09108097  0.04807064  0.09326779       0.005
   0.08572326  0.04524295  0.09326779       0.005
   0.08036556  0.04241527  0.09326779       0.005
   0.07500785  0.03958758  0.09326779       0.005
   0.06965015  0.03675990  0.09326779       0.005
   0.06429245  0.03393221  0.09326779       0.005
   0.05893474  0.03110453  0.09326779       0.005
   0.05357704  0.02827685  0.09326779       0.005
   0.04821933  0.02544916  0.09326779       0.005
   0.04286163  0.02262148  0.09326779       0.005
   0.03750393  0.01979379  0.09326779       0.005
   0.03214622  0.01696611  0.09326779       0.005
   0.02678852  0.01413842  0.09326779       0.005
   0.02143082  0.01131074  0.09326779       0.005
   0.01607311  0.00848305  0.09326779       0.005
   0.01071541  0.00565537  0.09326779       0.005
   0.00535770  0.00282768  0.09326779       0.005
  -0.00000000 -0.00000000  0.09326779       0.005
  -0.00000000 -0.00000000  0.09326779       0.005
   0.01071541 -0.00000000  0.09326779       0.005
   0.02143082 -0.00000000  0.09326779       0.005
   0.03214622 -0.00000000  0.09326779       0.005
   0.04286163 -0.00000000  0.09326779       0.005
   0.05357704 -0.00000000  0.09326779       0.005
   0.06429245 -0.00000000  0.09326779       0.005
   0.07500785 -0.00000000  0.09326779       0.005
   0.08572326 -0.00000000  0.09326779       0.005
   0.09643867 -0.00000000  0.09326779       0.005
   0.10715408 -0.00000000  0.09326779       0.005
   0.11786949 -0.00000000  0.09326779       0.005
   0.12858489 -0.00000000  0.09326779       0.005
   0.13930030 -0.00000000  0.09326779       0.005
   0.15001571 -0.00000000  0.09326779       0.005
   0.16073112 -0.00000000  0.09326779       0.005
   0.17144652 -0.00000000  0.09326779       0.005
   0.18216193 -0.00000000  0.09326779       0.005
   0.19287734 -0.00000000  0.09326779       0.005
   0.20359275 -0.00000000  0.09326779       0.005
 
 k-points in reciprocal lattice and weights: k-points along high symmetry lines      
   0.00000000  0.00000000  0.00000000       0.005
   0.02631579  0.02631579  0.00000000       0.005
   0.05263158  0.05263158  0.00000000       0.005
   0.07894737  0.07894737  0.00000000       0.005
   0.10526316  0.10526316  0.00000000       0.005
   0.13157895  0.13157895  0.00000000       0.005
   0.15789474  0.15789474  0.00000000       0.005
   0.18421053  0.18421053  0.00000000       0.005
   0.21052632  0.21052632  0.00000000       0.005
   0.23684211  0.23684211  0.00000000       0.005
   0.26315789  0.26315789  0.00000000       0.005
   0.28947368  0.28947368  0.00000000       0.005
   0.31578947  0.31578947  0.00000000       0.005
   0.34210526  0.34210526  0.00000000       0.005
   0.36842105  0.36842105  0.00000000       0.005
   0.39473684  0.39473684  0.00000000       0.005
   0.42105263  0.42105263  0.00000000       0.005
   0.44736842  0.44736842  0.00000000       0.005
   0.47368421  0.47368421  0.00000000       0.005
   0.50000000  0.50000000  0.00000000       0.005
   0.50000000  0.50000000  0.00000000       0.005
   0.49050725  0.50949275  0.00000000       0.005
   0.48101450  0.51898550  0.00000000       0.005
   0.47152174  0.52847826  0.00000000       0.005
   0.46202899  0.53797101  0.00000000       0.005
   0.45253624  0.54746376  0.00000000       0.005
   0.44304349  0.55695651  0.00000000       0.005
   0.43355074  0.56644926  0.00000000       0.005
   0.42405798  0.57594202  0.00000000       0.005
   0.41456523  0.58543477  0.00000000       0.005
   0.40507248  0.59492752  0.00000000       0.005
   0.39557973  0.60442027  0.00000000       0.005
   0.38608698  0.61391302  0.00000000       0.005
   0.37659423  0.62340577  0.00000000       0.005
   0.36710147  0.63289853  0.00000000       0.005
   0.35760872  0.64239128  0.00000000       0.005
   0.34811597  0.65188403  0.00000000       0.005
   0.33862322  0.66137678  0.00000000       0.005
   0.32913047  0.67086953  0.00000000       0.005
   0.31963771  0.68036229  0.00000000       0.005
  -0.31963771  0.31963771  0.00000000       0.005
  -0.30281468  0.30281468  0.00000000       0.005
  -0.28599164  0.28599164  0.00000000       0.005
  -0.26916860  0.26916860  0.00000000       0.005
  -0.25234556  0.25234556  0.00000000       0.005
  -0.23552253  0.23552253  0.00000000       0.005
  -0.21869949  0.21869949  0.00000000       0.005
  -0.20187645  0.20187645  0.00000000       0.005
  -0.18505341  0.18505341  0.00000000       0.005
  -0.16823038  0.16823038  0.00000000       0.005
  -0.15140734  0.15140734  0.00000000       0.005
  -0.13458430  0.13458430  0.00000000       0.005
  -0.11776126  0.11776126  0.00000000       0.005
  -0.10093823  0.10093823  0.00000000       0.005
  -0.08411519  0.08411519  0.00000000       0.005
  -0.06729215  0.06729215  0.00000000       0.005
  -0.05046911  0.05046911  0.00000000       0.005
  -0.03364608  0.03364608  0.00000000       0.005
  -0.01682304  0.01682304  0.00000000       0.005
   0.00000000  0.00000000  0.00000000       0.005
   0.00000000  0.00000000  0.00000000       0.005
   0.00000000  0.00000000  0.02631579       0.005
   0.00000000  0.00000000  0.05263158       0.005
   0.00000000  0.00000000  0.07894737       0.005
   0.00000000  0.00000000  0.10526316       0.005
   0.00000000  0.00000000  0.13157895       0.005
   0.00000000  0.00000000  0.15789474       0.005
   0.00000000  0.00000000  0.18421053       0.005
   0.00000000  0.00000000  0.21052632       0.005
   0.00000000  0.00000000  0.23684211       0.005
   0.00000000  0.00000000  0.26315789       0.005
   0.00000000  0.00000000  0.28947368       0.005
   0.00000000  0.00000000  0.31578947       0.005
   0.00000000  0.00000000  0.34210526       0.005
   0.00000000  0.00000000  0.36842105       0.005
   0.00000000  0.00000000  0.39473684       0.005
   0.00000000  0.00000000  0.42105263       0.005
   0.00000000  0.00000000  0.44736842       0.005
   0.00000000  0.00000000  0.47368421       0.005
   0.00000000  0.00000000  0.50000000       0.005
   0.00000000  0.00000000  0.50000000       0.005
  -0.01682304  0.01682304  0.50000000       0.005
  -0.03364608  0.03364608  0.50000000       0.005
  -0.05046911  0.05046911  0.50000000       0.005
  -0.06729215  0.06729215  0.50000000       0.005
  -0.08411519  0.08411519  0.50000000       0.005
  -0.10093823  0.10093823  0.50000000       0.005
  -0.11776126  0.11776126  0.50000000       0.005
  -0.13458430  0.13458430  0.50000000       0.005
  -0.15140734  0.15140734  0.50000000       0.005
  -0.16823038  0.16823038  0.50000000       0.005
  -0.18505341  0.18505341  0.50000000       0.005
  -0.20187645  0.20187645  0.50000000       0.005
  -0.21869949  0.21869949  0.50000000       0.005
  -0.23552253  0.23552253  0.50000000       0.005
  -0.25234556  0.25234556  0.50000000       0.005
  -0.26916860  0.26916860  0.50000000       0.005
  -0.28599164  0.28599164  0.50000000       0.005
  -0.30281468  0.30281468  0.50000000       0.005
  -0.31963771  0.31963771  0.50000000       0.005
   0.31963771  0.68036229  0.50000000       0.005
   0.32913047  0.67086953  0.50000000       0.005
   0.33862322  0.66137678  0.50000000       0.005
   0.34811597  0.65188403  0.50000000       0.005
   0.35760872  0.64239128  0.50000000       0.005
   0.36710147  0.63289853  0.50000000       0.005
   0.37659423  0.62340577  0.50000000       0.005
   0.38608698  0.61391302  0.50000000       0.005
   0.39557973  0.60442027  0.50000000       0.005
   0.40507248  0.59492752  0.50000000       0.005
   0.41456523  0.58543477  0.50000000       0.005
   0.42405798  0.57594202  0.50000000       0.005
   0.43355074  0.56644926  0.50000000       0.005
   0.44304349  0.55695651  0.50000000       0.005
   0.45253624  0.54746376  0.50000000       0.005
   0.46202899  0.53797101  0.50000000       0.005
   0.47152174  0.52847826  0.50000000       0.005
   0.48101450  0.51898550  0.50000000       0.005
   0.49050725  0.50949275  0.50000000       0.005
   0.50000000  0.50000000  0.50000000       0.005
   0.50000000  0.50000000  0.50000000       0.005
   0.50000000  0.50000000  0.47368421       0.005
   0.50000000  0.50000000  0.44736842       0.005
   0.50000000  0.50000000  0.42105263       0.005
   0.50000000  0.50000000  0.39473684       0.005
   0.50000000  0.50000000  0.36842105       0.005
   0.50000000  0.50000000  0.34210526       0.005
   0.50000000  0.50000000  0.31578947       0.005
   0.50000000  0.50000000  0.28947368       0.005
   0.50000000  0.50000000  0.26315789       0.005
   0.50000000  0.50000000  0.23684211       0.005
   0.50000000  0.50000000  0.21052632       0.005
   0.50000000  0.50000000  0.18421053       0.005
   0.50000000  0.50000000  0.15789474       0.005
   0.50000000  0.50000000  0.13157895       0.005
   0.50000000  0.50000000  0.10526316       0.005
   0.50000000  0.50000000  0.07894737       0.005
   0.50000000  0.50000000  0.05263158       0.005
   0.50000000  0.50000000  0.02631579       0.005
   0.50000000  0.50000000  0.00000000       0.005
   0.00000000  0.00000000  0.00000000       0.005
   0.00000000  0.02631579  0.00000000       0.005
   0.00000000  0.05263158  0.00000000       0.005
   0.00000000  0.07894737  0.00000000       0.005
   0.00000000  0.10526316  0.00000000       0.005
   0.00000000  0.13157895  0.00000000       0.005
   0.00000000  0.15789474  0.00000000       0.005
   0.00000000  0.18421053  0.00000000       0.005
   0.00000000  0.21052632  0.00000000       0.005
   0.00000000  0.23684211  0.00000000       0.005
   0.00000000  0.26315789  0.00000000       0.005
   0.00000000  0.28947368  0.00000000       0.005
   0.00000000  0.31578947  0.00000000       0.005
   0.00000000  0.34210526  0.00000000       0.005
   0.00000000  0.36842105  0.00000000       0.005
   0.00000000  0.39473684  0.00000000       0.005
   0.00000000  0.42105263  0.00000000       0.005
   0.00000000  0.44736842  0.00000000       0.005
   0.00000000  0.47368421  0.00000000       0.005
   0.00000000  0.50000000  0.00000000       0.005
   0.00000000  0.50000000  0.00000000       0.005
   0.00000000  0.50000000  0.02631579       0.005
   0.00000000  0.50000000  0.05263158       0.005
   0.00000000  0.50000000  0.07894737       0.005
   0.00000000  0.50000000  0.10526316       0.005
   0.00000000  0.50000000  0.13157895       0.005
   0.00000000  0.50000000  0.15789474       0.005
   0.00000000  0.50000000  0.18421053       0.005
   0.00000000  0.50000000  0.21052632       0.005
   0.00000000  0.50000000  0.23684211       0.005
   0.00000000  0.50000000  0.26315789       0.005
   0.00000000  0.50000000  0.28947368       0.005
   0.00000000  0.50000000  0.31578947       0.005
   0.00000000  0.50000000  0.34210526       0.005
   0.00000000  0.50000000  0.36842105       0.005
   0.00000000  0.50000000  0.39473684       0.005
   0.00000000  0.50000000  0.42105263       0.005
   0.00000000  0.50000000  0.44736842       0.005
   0.00000000  0.50000000  0.47368421       0.005
   0.00000000  0.50000000  0.50000000       0.005
   0.00000000  0.50000000  0.50000000       0.005
   0.00000000  0.47368421  0.50000000       0.005
   0.00000000  0.44736842  0.50000000       0.005
   0.00000000  0.42105263  0.50000000       0.005
   0.00000000  0.39473684  0.50000000       0.005
   0.00000000  0.36842105  0.50000000       0.005
   0.00000000  0.34210526  0.50000000       0.005
   0.00000000  0.31578947  0.50000000       0.005
   0.00000000  0.28947368  0.50000000       0.005
   0.00000000  0.26315789  0.50000000       0.005
   0.00000000  0.23684211  0.50000000       0.005
   0.00000000  0.21052632  0.50000000       0.005
   0.00000000  0.18421053  0.50000000       0.005
   0.00000000  0.15789474  0.50000000       0.005
   0.00000000  0.13157895  0.50000000       0.005
   0.00000000  0.10526316  0.50000000       0.005
   0.00000000  0.07894737  0.50000000       0.005
   0.00000000  0.05263158  0.50000000       0.005
   0.00000000  0.02631579  0.50000000       0.005
   0.00000000  0.00000000  0.50000000       0.005
   0.00000000  0.00000000  0.50000000       0.005
   0.02631579  0.02631579  0.50000000       0.005
   0.05263158  0.05263158  0.50000000       0.005
   0.07894737  0.07894737  0.50000000       0.005
   0.10526316  0.10526316  0.50000000       0.005
   0.13157895  0.13157895  0.50000000       0.005
   0.15789474  0.15789474  0.50000000       0.005
   0.18421053  0.18421053  0.50000000       0.005
   0.21052632  0.21052632  0.50000000       0.005
   0.23684211  0.23684211  0.50000000       0.005
   0.26315789  0.26315789  0.50000000       0.005
   0.28947368  0.28947368  0.50000000       0.005
   0.31578947  0.31578947  0.50000000       0.005
   0.34210526  0.34210526  0.50000000       0.005
   0.36842105  0.36842105  0.50000000       0.005
   0.39473684  0.39473684  0.50000000       0.005
   0.42105263  0.42105263  0.50000000       0.005
   0.44736842  0.44736842  0.50000000       0.005
   0.47368421  0.47368421  0.50000000       0.005
   0.50000000  0.50000000  0.50000000       0.005
 
 position of ions in fractional coordinates (direct lattice) 
   0.50010233  0.50010233  0.77155089
   0.49989767  0.49989767  0.22844911
   0.99989767  0.99989767  0.27155089
   0.00010233  0.00010233  0.72844911
   0.72352619  0.27647381  0.50000000
   0.22352619  0.77647381  0.00000000
   0.27647381  0.72352619  0.50000000
   0.77647381  0.22352619  0.00000000
 
 position of ions in cartesian coordinates  (Angst):
   2.45638580  0.00000001  4.13621282
   2.45538053  0.00000001  1.22469454
   4.91126369  0.00000001  1.45575915
   0.00050263  0.00000001  3.90514820
   2.45588317 -2.08024200  2.68045368
   2.45588316  2.57299797  0.00000001
   2.45588315  2.08024205  2.68045367
   2.45588316 -2.57299795  0.00000000
 


--------------------------------------------------------------------------------------------------------


 k-point  1 :   0.0000 0.0000 0.0000  plane waves:    3251
 k-point  2 :   0.0263 0.0263 0.0000  plane waves:    3263
 k-point  3 :   0.0526 0.0526 0.0000  plane waves:    3277
 k-point  4 :   0.0789 0.0789 0.0000  plane waves:    3271
 k-point  5 :   0.1053 0.1053 0.0000  plane waves:    3291
 k-point  6 :   0.1316 0.1316 0.0000  plane waves:    3305
 k-point  7 :   0.1579 0.1579 0.0000  plane waves:    3305
 k-point  8 :   0.1842 0.1842 0.0000  plane waves:    3283
 k-point  9 :   0.2105 0.2105 0.0000  plane waves:    3291
 k-point 10 :   0.2368 0.2368 0.0000  plane waves:    3281
 k-point 11 :   0.2632 0.2632 0.0000  plane waves:    3273
 k-point 12 :   0.2895 0.2895 0.0000  plane waves:    3291
 k-point 13 :   0.3158 0.3158 0.0000  plane waves:    3281
 k-point 14 :   0.3421 0.3421 0.0000  plane waves:    3293
 k-point 15 :   0.3684 0.3684 0.0000  plane waves:    3311
 k-point 16 :   0.3947 0.3947 0.0000  plane waves:    3319
 k-point 17 :   0.4211 0.4211 0.0000  plane waves:    3313
 k-point 18 :   0.4474 0.4474 0.0000  plane waves:    3300
 k-point 19 :   0.4737 0.4737 0.0000  plane waves:    3282
 k-point 20 :   0.5000 0.5000 0.0000  plane waves:    3296
 k-point 21 :   0.5000 0.5000 0.0000  plane waves:    3296
 k-point 22 :   0.4905 0.5095 0.0000  plane waves:    3292
 k-point 23 :   0.4810 0.5190 0.0000  plane waves:    3298
 k-point 24 :   0.4715 0.5285 0.0000  plane waves:    3294
 k-point 25 :   0.4620 0.5380 0.0000  plane waves:    3290
 k-point 26 :   0.4525 0.5475 0.0000  plane waves:    3294
 k-point 27 :   0.4430 0.5570 0.0000  plane waves:    3290
 k-point 28 :   0.4336 0.5664 0.0000  plane waves:    3300
 k-point 29 :   0.4241 0.5759 0.0000  plane waves:    3300
 k-point 30 :   0.4146 0.5854 0.0000  plane waves:    3296
 k-point 31 :   0.4051 0.5949 0.0000  plane waves:    3296
 k-point 32 :   0.3956 0.6044 0.0000  plane waves:    3300
 k-point 33 :   0.3861 0.6139 0.0000  plane waves:    3298
 k-point 34 :   0.3766 0.6234 0.0000  plane waves:    3298
 k-point 35 :   0.3671 0.6329 0.0000  plane waves:    3302
 k-point 36 :   0.3576 0.6424 0.0000  plane waves:    3302
 k-point 37 :   0.3481 0.6519 0.0000  plane waves:    3298
 k-point 38 :   0.3386 0.6614 0.0000  plane waves:    3301
 k-point 39 :   0.3291 0.6709 0.0000  plane waves:    3301
 k-point 40 :   0.3196 0.6804 0.0000  plane waves:    3303
 k-point 41 :  -0.3196 0.3196 0.0000  plane waves:    3303
 k-point 42 :  -0.3028 0.3028 0.0000  plane waves:    3291
 k-point 43 :  -0.2860 0.2860 0.0000  plane waves:    3299
 k-point 44 :  -0.2692 0.2692 0.0000  plane waves:    3293
 k-point 45 :  -0.2523 0.2523 0.0000  plane waves:    3303
 k-point 46 :  -0.2355 0.2355 0.0000  plane waves:    3313
 k-point 47 :  -0.2187 0.2187 0.0000  plane waves:    3303
 k-point 48 :  -0.2019 0.2019 0.0000  plane waves:    3295
 k-point 49 :  -0.1851 0.1851 0.0000  plane waves:    3291
 k-point 50 :  -0.1682 0.1682 0.0000  plane waves:    3293
 k-point 51 :  -0.1514 0.1514 0.0000  plane waves:    3293
 k-point 52 :  -0.1346 0.1346 0.0000  plane waves:    3281
 k-point 53 :  -0.1178 0.1178 0.0000  plane waves:    3277
 k-point 54 :  -0.1009 0.1009 0.0000  plane waves:    3269
 k-point 55 :  -0.0841 0.0841 0.0000  plane waves:    3273
 k-point 56 :  -0.0673 0.0673 0.0000  plane waves:    3263
 k-point 57 :  -0.0505 0.0505 0.0000  plane waves:    3269
 k-point 58 :  -0.0336 0.0336 0.0000  plane waves:    3261
 k-point 59 :  -0.0168 0.0168 0.0000  plane waves:    3255
 k-point 60 :   0.0000 0.0000 0.0000  plane waves:    3251
 k-point 61 :   0.0000 0.0000 0.0000  plane waves:    3251
 k-point 62 :   0.0000 0.0000 0.0263  plane waves:    3251
 k-point 63 :   0.0000 0.0000 0.0526  plane waves:    3266
 k-point 64 :   0.0000 0.0000 0.0789  plane waves:    3270
 k-point 65 :   0.0000 0.0000 0.1053  plane waves:    3276
 k-point 66 :   0.0000 0.0000 0.1316  plane waves:    3280
 k-point 67 :   0.0000 0.0000 0.1579  plane waves:    3288
 k-point 68 :   0.0000 0.0000 0.1842  plane waves:    3296
 k-point 69 :   0.0000 0.0000 0.2105  plane waves:    3300
 k-point 70 :   0.0000 0.0000 0.2368  plane waves:    3296
 k-point 71 :   0.0000 0.0000 0.2632  plane waves:    3304
 k-point 72 :   0.0000 0.0000 0.2895  plane waves:    3306
 k-point 73 :   0.0000 0.0000 0.3158  plane waves:    3316
 k-point 74 :   0.0000 0.0000 0.3421  plane waves:    3328
 k-point 75 :   0.0000 0.0000 0.3684  plane waves:    3326
 k-point 76 :   0.0000 0.0000 0.3947  plane waves:    3322
 k-point 77 :   0.0000 0.0000 0.4211  plane waves:    3322
 k-point 78 :   0.0000 0.0000 0.4474  plane waves:    3310
 k-point 79 :   0.0000 0.0000 0.4737  plane waves:    3310
 k-point 80 :   0.0000 0.0000 0.5000  plane waves:    3312
 k-point 81 :   0.0000 0.0000 0.5000  plane waves:    3312
 k-point 82 :  -0.0168 0.0168 0.5000  plane waves:    3308
 k-point 83 :  -0.0336 0.0336 0.5000  plane waves:    3308
 k-point 84 :  -0.0505 0.0505 0.5000  plane waves:    3308
 k-point 85 :  -0.0673 0.0673 0.5000  plane waves:    3316
 k-point 86 :  -0.0841 0.0841 0.5000  plane waves:    3316
 k-point 87 :  -0.1009 0.1009 0.5000  plane waves:    3316
 k-point 88 :  -0.1178 0.1178 0.5000  plane waves:    3310
 k-point 89 :  -0.1346 0.1346 0.5000  plane waves:    3306
 k-point 90 :  -0.1514 0.1514 0.5000  plane waves:    3298
 k-point 91 :  -0.1682 0.1682 0.5000  plane waves:    3282
 k-point 92 :  -0.1851 0.1851 0.5000  plane waves:    3282
 k-point 93 :  -0.2019 0.2019 0.5000  plane waves:    3286
 k-point 94 :  -0.2187 0.2187 0.5000  plane waves:    3284
 k-point 95 :  -0.2355 0.2355 0.5000  plane waves:    3288
 k-point 96 :  -0.2523 0.2523 0.5000  plane waves:    3288
 k-point 97 :  -0.2692 0.2692 0.5000  plane waves:    3284
 k-point 98 :  -0.2860 0.2860 0.5000  plane waves:    3286
 k-point 99 :  -0.3028 0.3028 0.5000  plane waves:    3288
 k-point ** :  -0.3196 0.3196 0.5000  plane waves:    3288
 k-point ** :   0.3196 0.6804 0.5000  plane waves:    3288
 k-point ** :   0.3291 0.6709 0.5000  plane waves:    3292
 k-point ** :   0.3386 0.6614 0.5000  plane waves:    3300
 k-point ** :   0.3481 0.6519 0.5000  plane waves:    3300
 k-point ** :   0.3576 0.6424 0.5000  plane waves:    3296
 k-point ** :   0.3671 0.6329 0.5000  plane waves:    3298
 k-point ** :   0.3766 0.6234 0.5000  plane waves:    3292
 k-point ** :   0.3861 0.6139 0.5000  plane waves:    3298
 k-point ** :   0.3956 0.6044 0.5000  plane waves:    3294
 k-point ** :   0.4051 0.5949 0.5000  plane waves:    3298
 k-point ** :   0.4146 0.5854 0.5000  plane waves:    3286
 k-point ** :   0.4241 0.5759 0.5000  plane waves:    3286
 k-point ** :   0.4336 0.5664 0.5000  plane waves:    3286
 k-point ** :   0.4430 0.5570 0.5000  plane waves:    3288
 k-point ** :   0.4525 0.5475 0.5000  plane waves:    3282
 k-point ** :   0.4620 0.5380 0.5000  plane waves:    3286
 k-point ** :   0.4715 0.5285 0.5000  plane waves:    3274
 k-point ** :   0.4810 0.5190 0.5000  plane waves:    3276
 k-point ** :   0.4905 0.5095 0.5000  plane waves:    3272
 k-point ** :   0.5000 0.5000 0.5000  plane waves:    3276
 k-point ** :   0.5000 0.5000 0.5000  plane waves:    3276
 k-point ** :   0.5000 0.5000 0.4737  plane waves:    3286
 k-point ** :   0.5000 0.5000 0.4474  plane waves:    3288
 k-point ** :   0.5000 0.5000 0.4211  plane waves:    3294
 k-point ** :   0.5000 0.5000 0.3947  plane waves:    3294
 k-point ** :   0.5000 0.5000 0.3684  plane waves:    3302
 k-point ** :   0.5000 0.5000 0.3421  plane waves:    3298
 k-point ** :   0.5000 0.5000 0.3158  plane waves:    3304
 k-point ** :   0.5000 0.5000 0.2895  plane waves:    3312
 k-point ** :   0.5000 0.5000 0.2632  plane waves:    3316
 k-point ** :   0.5000 0.5000 0.2368  plane waves:    3316
 k-point ** :   0.5000 0.5000 0.2105  plane waves:    3312
 k-point ** :   0.5000 0.5000 0.1842  plane waves:    3312
 k-point ** :   0.5000 0.5000 0.1579  plane waves:    3306
 k-point ** :   0.5000 0.5000 0.1316  plane waves:    3292
 k-point ** :   0.5000 0.5000 0.1053  plane waves:    3302
 k-point ** :   0.5000 0.5000 0.0789  plane waves:    3300
 k-point ** :   0.5000 0.5000 0.0526  plane waves:    3292
 k-point ** :   0.5000 0.5000 0.0263  plane waves:    3288
 k-point ** :   0.5000 0.5000 0.0000  plane waves:    3296
 k-point ** :   0.0000 0.0000 0.0000  plane waves:    3251
 k-point ** :   0.0000 0.0263 0.0000  plane waves:    3263
 k-point ** :   0.0000 0.0526 0.0000  plane waves:    3268
 k-point ** :   0.0000 0.0789 0.0000  plane waves:    3271
 k-point ** :   0.0000 0.1053 0.0000  plane waves:    3274
 k-point ** :   0.0000 0.1316 0.0000  plane waves:    3272
 k-point ** :   0.0000 0.1579 0.0000  plane waves:    3271
 k-point ** :   0.0000 0.1842 0.0000  plane waves:    3280
 k-point ** :   0.0000 0.2105 0.0000  plane waves:    3290
 k-point ** :   0.0000 0.2368 0.0000  plane waves:    3297
 k-point ** :   0.0000 0.2632 0.0000  plane waves:    3296
 k-point ** :   0.0000 0.2895 0.0000  plane waves:    3296
 k-point ** :   0.0000 0.3158 0.0000  plane waves:    3291
 k-point ** :   0.0000 0.3421 0.0000  plane waves:    3291
 k-point ** :   0.0000 0.3684 0.0000  plane waves:    3297
 k-point ** :   0.0000 0.3947 0.0000  plane waves:    3293
 k-point ** :   0.0000 0.4211 0.0000  plane waves:    3293
 k-point ** :   0.0000 0.4474 0.0000  plane waves:    3295
 k-point ** :   0.0000 0.4737 0.0000  plane waves:    3286
 k-point ** :   0.0000 0.5000 0.0000  plane waves:    3288
 k-point ** :   0.0000 0.5000 0.0000  plane waves:    3288
 k-point ** :   0.0000 0.5000 0.0263  plane waves:    3286
 k-point ** :   0.0000 0.5000 0.0526  plane waves:    3292
 k-point ** :   0.0000 0.5000 0.0789  plane waves:    3294
 k-point ** :   0.0000 0.5000 0.1053  plane waves:    3298
 k-point ** :   0.0000 0.5000 0.1316  plane waves:    3302
 k-point ** :   0.0000 0.5000 0.1579  plane waves:    3306
 k-point ** :   0.0000 0.5000 0.1842  plane waves:    3314
 k-point ** :   0.0000 0.5000 0.2105  plane waves:    3316
 k-point ** :   0.0000 0.5000 0.2368  plane waves:    3310
 k-point ** :   0.0000 0.5000 0.2632  plane waves:    3308
 k-point ** :   0.0000 0.5000 0.2895  plane waves:    3304
 k-point ** :   0.0000 0.5000 0.3158  plane waves:    3310
 k-point ** :   0.0000 0.5000 0.3421  plane waves:    3312
 k-point ** :   0.0000 0.5000 0.3684  plane waves:    3312
 k-point ** :   0.0000 0.5000 0.3947  plane waves:    3316
 k-point ** :   0.0000 0.5000 0.4211  plane waves:    3310
 k-point ** :   0.0000 0.5000 0.4474  plane waves:    3308
 k-point ** :   0.0000 0.5000 0.4737  plane waves:    3318
 k-point ** :   0.0000 0.5000 0.5000  plane waves:    3324
 k-point ** :   0.0000 0.5000 0.5000  plane waves:    3324
 k-point ** :   0.0000 0.4737 0.5000  plane waves:    3310
 k-point ** :   0.0000 0.4474 0.5000  plane waves:    3314
 k-point ** :   0.0000 0.4211 0.5000  plane waves:    3308
 k-point ** :   0.0000 0.3947 0.5000  plane waves:    3314
 k-point ** :   0.0000 0.3684 0.5000  plane waves:    3314
 k-point ** :   0.0000 0.3421 0.5000  plane waves:    3318
 k-point ** :   0.0000 0.3158 0.5000  plane waves:    3316
 k-point ** :   0.0000 0.2895 0.5000  plane waves:    3308
 k-point ** :   0.0000 0.2632 0.5000  plane waves:    3300
 k-point ** :   0.0000 0.2368 0.5000  plane waves:    3298
 k-point ** :   0.0000 0.2105 0.5000  plane waves:    3302
 k-point ** :   0.0000 0.1842 0.5000  plane waves:    3306
 k-point ** :   0.0000 0.1579 0.5000  plane waves:    3298
 k-point ** :   0.0000 0.1316 0.5000  plane waves:    3302
 k-point ** :   0.0000 0.1053 0.5000  plane waves:    3310
 k-point ** :   0.0000 0.0789 0.5000  plane waves:    3310
 k-point ** :   0.0000 0.0526 0.5000  plane waves:    3312
 k-point ** :   0.0000 0.0263 0.5000  plane waves:    3304
 k-point ** :   0.0000 0.0000 0.5000  plane waves:    3312
 k-point ** :   0.0000 0.0000 0.5000  plane waves:    3312
 k-point ** :   0.0263 0.0263 0.5000  plane waves:    3298
 k-point ** :   0.0526 0.0526 0.5000  plane waves:    3310
 k-point ** :   0.0789 0.0789 0.5000  plane waves:    3304
 k-point ** :   0.1053 0.1053 0.5000  plane waves:    3304
 k-point ** :   0.1316 0.1316 0.5000  plane waves:    3312
 k-point ** :   0.1579 0.1579 0.5000  plane waves:    3300
 k-point ** :   0.1842 0.1842 0.5000  plane waves:    3312
 k-point ** :   0.2105 0.2105 0.5000  plane waves:    3314
 k-point ** :   0.2368 0.2368 0.5000  plane waves:    3314
 k-point ** :   0.2632 0.2632 0.5000  plane waves:    3322
 k-point ** :   0.2895 0.2895 0.5000  plane waves:    3324
 k-point ** :   0.3158 0.3158 0.5000  plane waves:    3320
 k-point ** :   0.3421 0.3421 0.5000  plane waves:    3332
 k-point ** :   0.3684 0.3684 0.5000  plane waves:    3320
 k-point ** :   0.3947 0.3947 0.5000  plane waves:    3304
 k-point ** :   0.4211 0.4211 0.5000  plane waves:    3302
 k-point ** :   0.4474 0.4474 0.5000  plane waves:    3296
 k-point ** :   0.4737 0.4737 0.5000  plane waves:    3290
 k-point ** :   0.5000 0.5000 0.5000  plane waves:    3276

 maximum and minimum number of plane-waves per node :       289      255

 maximum number of plane-waves:      3332
 maximum index in each direction: 
   IXMAX=   10   IYMAX=    9   IZMAX=    9
   IXMIN=  -10   IYMIN=  -10   IZMIN=  -10

 WARNING: aliasing errors must be expected set NGX to  42 to avoid them
 NGY is ok and might be reduce to  40
 NGZ is ok and might be reduce to  40
 aliasing errors are usually negligible using standard VASP settings
 and one can safely disregard these warnings

 real space projection operators:
  total allocation   :       1876.75 KBytes
  max/ min on nodes  :        192.69        134.75


 parallel 3D FFT for wavefunctions:
    minimum data exchange during FFTs selected (reduces bandwidth)
 parallel 3D FFT for charge:
    minimum data exchange during FFTs selected (reduces bandwidth)


 total amount of memory used by VASP on root node    40748. kBytes
========================================================================

   base      :      30000. kBytes
   nonlr-proj:        761. kBytes
   fftplans  :       2005. kBytes
   grid      :        883. kBytes
   one-center:          3. kBytes
   wavefun   :       7096. kBytes
 
     INWAV:  cpu time    0.0000: real time    0.0000
 initial charge density was supplied:
 number of electron      32.0000000 magnetization 
 keeping initial charge density in first step


--------------------------------------------------------------------------------------------------------


 Maximum index for non-local projection operator          482
 Maximum index for augmentation-charges         5041 (set IRDMAX)


--------------------------------------------------------------------------------------------------------


 First call to EWALD:  gamma=   0.357
 Maximum number of real-space cells 3x 3x 3
 Maximum number of reciprocal cells 3x 3x 3

 FEWALD executed in parallel
    FEWALD:  cpu time    0.0030: real time    0.0029


----------------------------------------- Iteration    1(   1)  ---------------------------------------


    POTLOK:  cpu time    0.0160: real time    0.0166
    SETDIJ:  cpu time    0.0290: real time    0.0296
     EDDAV:  cpu time    5.2972: real time    5.4046
       DOS:  cpu time    0.0060: real time    0.0053
    --------------------------------------------
      LOOP:  cpu time    5.3512: real time    5.4729

 eigenvalue-minimisations  : 12320
 total energy-change (2. order) : 0.5196323E+02  (-0.1247585E+04)
 number of electron      32.0000000 magnetization 
 augmentation part       32.0000000 magnetization 

 Free energy of the ion-electron system (eV)
  ---------------------------------------------------
  alpha Z        PSCENC =        17.58340698
  Ewald energy   TEWEN  =     -1060.42415358
  -Hartree energ DENC   =       -10.04250096
  -exchange      EXHF   =         0.00000000
  -V(xc)+E(xc)   XCENC  =       -70.39461163
  PAW double counting   =      2738.47737203    -2598.10903970
  entropy T*S    EENTRO =        -0.00237395
  eigenvalues    EBANDS =       210.34431675
  atomic energy  EATOM  =       824.53081094
  Solvation  Ediel_sol  =         0.00000000
  ---------------------------------------------------
  free energy    TOTEN  =        51.96322688 eV

  energy without entropy =       51.96560083  energy(sigma->0) =       51.96441385


--------------------------------------------------------------------------------------------------------




----------------------------------------- Iteration    1(   2)  ---------------------------------------


     EDDAV:  cpu time    6.0761: real time    6.1631
       DOS:  cpu time    0.0050: real time    0.0053
    --------------------------------------------
      LOOP:  cpu time    6.0821: real time    6.1955

 eigenvalue-minimisations  : 15132
 total energy-change (2. order) :-0.9035333E+02  (-0.8342599E+02)
 number of electron      32.0000000 magnetization 
 augmentation part       32.0000000 magnetization 

 Free energy of the ion-electron system (eV)
  ---------------------------------------------------
  alpha Z        PSCENC =        17.58340698
  Ewald energy   TEWEN  =     -1060.42415358
  -Hartree energ DENC   =       -10.04250096
  -exchange      EXHF   =         0.00000000
  -V(xc)+E(xc)   XCENC  =       -70.39461163
  PAW double counting   =      2738.47737203    -2598.10903970
  entropy T*S    EENTRO =        -0.00335282
  eigenvalues    EBANDS =       119.99196323
  atomic energy  EATOM  =       824.53081094
  Solvation  Ediel_sol  =         0.00000000
  ---------------------------------------------------
  free energy    TOTEN  =       -38.39010552 eV

  energy without entropy =      -38.38675270  energy(sigma->0) =      -38.38842911


--------------------------------------------------------------------------------------------------------




----------------------------------------- Iteration    1(   3)  ---------------------------------------


     EDDAV:  cpu time    6.0781: real time    6.0888
       DOS:  cpu time    0.0060: real time    0.0054
    --------------------------------------------
      LOOP:  cpu time    6.0871: real time    6.1073

 eigenvalue-minimisations  : 15880
 total energy-change (2. order) :-0.3907759E+01  (-0.3808467E+01)
 number of electron      32.0000000 magnetization 
 augmentation part       32.0000000 magnetization 

 Free energy of the ion-electron system (eV)
  ---------------------------------------------------
  alpha Z        PSCENC =        17.58340698
  Ewald energy   TEWEN  =     -1060.42415358
  -Hartree energ DENC   =       -10.04250096
  -exchange      EXHF   =         0.00000000
  -V(xc)+E(xc)   XCENC  =       -70.39461163
  PAW double counting   =      2738.47737203    -2598.10903970
  entropy T*S    EENTRO =        -0.00328295
  eigenvalues    EBANDS =       116.08413454
  atomic energy  EATOM  =       824.53081094
  Solvation  Ediel_sol  =         0.00000000
  ---------------------------------------------------
  free energy    TOTEN  =       -42.29786433 eV

  energy without entropy =      -42.29458138  energy(sigma->0) =      -42.29622285


--------------------------------------------------------------------------------------------------------




----------------------------------------- Iteration    1(   4)  ---------------------------------------


     EDDAV:  cpu time    5.8631: real time    5.8741
       DOS:  cpu time    0.0050: real time    0.0053
    --------------------------------------------
      LOOP:  cpu time    5.8711: real time    5.9028

 eigenvalue-minimisations  : 15148
 total energy-change (2. order) :-0.3889294E-01  (-0.3879459E-01)
 number of electron      32.0000000 magnetization 
 augmentation part       32.0000000 magnetization 

 Free energy of the ion-electron system (eV)
  ---------------------------------------------------
  alpha Z        PSCENC =        17.58340698
  Ewald energy   TEWEN  =     -1060.42415358
  -Hartree energ DENC   =       -10.04250096
  -exchange      EXHF   =         0.00000000
  -V(xc)+E(xc)   XCENC  =       -70.39461163
  PAW double counting   =      2738.47737203    -2598.10903970
  entropy T*S    EENTRO =        -0.00326325
  eigenvalues    EBANDS =       116.04522191
  atomic energy  EATOM  =       824.53081094
  Solvation  Ediel_sol  =         0.00000000
  ---------------------------------------------------
  free energy    TOTEN  =       -42.33675727 eV

  energy without entropy =      -42.33349402  energy(sigma->0) =      -42.33512564


--------------------------------------------------------------------------------------------------------




----------------------------------------- Iteration    1(   5)  ---------------------------------------


     EDDAV:  cpu time    5.8771: real time    5.8871
       DOS:  cpu time    0.0060: real time    0.0054
    --------------------------------------------
      LOOP:  cpu time    5.8861: real time    5.9073

 eigenvalue-minimisations  : 15200
 total energy-change (2. order) :-0.3366543E-03  (-0.3365827E-03)
 number of electron      32.0000000 magnetization 
 augmentation part       32.0000000 magnetization 

 Free energy of the ion-electron system (eV)
  ---------------------------------------------------
  alpha Z        PSCENC =        17.58340698
  Ewald energy   TEWEN  =     -1060.42415358
  -Hartree energ DENC   =       -10.04250096
  -exchange      EXHF   =         0.00000000
  -V(xc)+E(xc)   XCENC  =       -70.39461163
  PAW double counting   =      2738.47737203    -2598.10903970
  entropy T*S    EENTRO =        -0.00326316
  eigenvalues    EBANDS =       116.04488516
  atomic energy  EATOM  =       824.53081094
  Solvation  Ediel_sol  =         0.00000000
  ---------------------------------------------------
  free energy    TOTEN  =       -42.33709393 eV

  energy without entropy =      -42.33383076  energy(sigma->0) =      -42.33546234


--------------------------------------------------------------------------------------------------------




----------------------------------------- Iteration    1(   6)  ---------------------------------------


     EDDAV:  cpu time    5.2542: real time    5.2645
       DOS:  cpu time    0.0050: real time    0.0052
    --------------------------------------------
      LOOP:  cpu time    5.2622: real time    5.2854

 eigenvalue-minimisations  : 12592
 total energy-change (2. order) :-0.4112385E-05  (-0.4111737E-05)
 number of electron      32.0000000 magnetization 
 augmentation part       32.0000000 magnetization 

 Free energy of the ion-electron system (eV)
  ---------------------------------------------------
  alpha Z        PSCENC =        17.58340698
  Ewald energy   TEWEN  =     -1060.42415358
  -Hartree energ DENC   =       -10.04250096
  -exchange      EXHF   =         0.00000000
  -V(xc)+E(xc)   XCENC  =       -70.39461163
  PAW double counting   =      2738.47737203    -2598.10903970
  entropy T*S    EENTRO =        -0.00326316
  eigenvalues    EBANDS =       116.04488105
  atomic energy  EATOM  =       824.53081094
  Solvation  Ediel_sol  =         0.00000000
  ---------------------------------------------------
  free energy    TOTEN  =       -42.33709804 eV

  energy without entropy =      -42.33383488  energy(sigma->0) =      -42.33546646


--------------------------------------------------------------------------------------------------------




 average (electrostatic) potential at core
  the test charge radii are     0.9892
  (the norm of the test charge is              1.0000)
       1 -80.5132       2 -80.5132       3 -80.5132       4 -80.5132       5 -80.6038
       6 -80.6038       7 -80.6038       8 -80.6038
 
 
 
 E-fermi :   8.7587     XC(G=0): -10.8876     alpha+bet :-15.6599


 k-point     1 :       0.0000    0.0000    0.0000
  band No.  band energies     occupation 
      1      -4.6159      2.00000
      2       0.2956      2.00000
      3       0.3015      2.00000
      4       1.4485      2.00000
      5       1.9177      2.00000
      6       2.1659      2.00000
      7       2.4444      2.00000
      8       3.6366      2.00000
      9       3.9429      2.00000
     10       6.2259      2.00000
     11       6.3639      2.00000
     12       6.5770      2.00000
     13       6.7131      2.00000
     14       6.9127      2.00000
     15       7.0988      2.00000
     16       7.1536      2.00000
     17       7.1901      2.00000
     18       7.4063      2.00000
     19       7.4757      2.00000
     20      10.4619      0.00000
     21      10.9204      0.00000
     22      13.9869      0.00000
     23      14.2340      0.00000
     24      15.0614      0.00000
     25      15.2511      0.00000
     26      16.6361      0.00000
     27      16.7110      0.00000
     28      16.7480      0.00000

 k-point     2 :       0.0263    0.0263    0.0000
  band No.  band energies     occupation 
      1      -4.5995      2.00000
      2       0.3106      2.00000
      3       0.3176      2.00000
      4       1.4646      2.00000
      5       1.7461      2.00000
      6       1.9981      2.00000
      7       2.4587      2.00000
      8       3.8365      2.00000
      9       4.1372      2.00000
     10       6.2408      2.00000
     11       6.2914      2.00000
     12       6.4390      2.00000
     13       6.5915      2.00000
     14       6.6410      2.00000
     15       6.7311      2.00000
     16       7.2048      2.00000
     17       7.4224      2.00000
     18       7.5961      2.00000
     19       7.9240      2.00000
     20      10.5653      0.00000
     21      11.0244      0.00000
     22      14.0017      0.00000
     23      14.1307      0.00000
     24      14.9181      0.00000
     25      15.2280      0.00000
     26      16.1547      0.00000
     27      16.7714      0.00000
     28      16.8446      0.00000

 k-point     3 :       0.0526    0.0526    0.0000
  band No.  band energies     occupation 
      1      -4.5503      2.00000
      2       0.3544      2.00000
      3       0.3658      2.00000
      4       1.3683      2.00000
      5       1.5130      2.00000
      6       1.6225      2.00000
      7       2.5013      2.00000
      8       4.2997      2.00000
      9       4.5917      2.00000
     10       5.9087      2.00000
     11       6.0936      2.00000
     12       6.2080      2.00000
     13       6.2857      2.00000
     14       6.4437      2.00000
     15       6.6350      2.00000
     16       7.2489      2.00000
     17       7.4711      2.00000
     18       8.1973      2.00000
     19       8.5244      2.00000
     20      10.8560      0.00000
     21      11.3175      0.00000
     22      13.8703      0.00000
     23      14.0461      0.00000
     24      14.5929      0.00000
     25      15.0237      0.00000
     26      15.4879      0.00000
     27      17.1045      0.00000
     28      17.1842      0.00000

 k-point     4 :       0.0789    0.0789    0.0000
  band No.  band energies     occupation 
      1      -4.4684      2.00000
      2       0.4187      2.00000
      3       0.4460      2.00000
      4       0.9400      2.00000
      5       1.1827      2.00000
      6       1.5934      2.00000
      7       2.5715      2.00000
      8       4.8773      2.00000
      9       5.1608      2.00000
     10       5.4020      2.00000
     11       5.7068      2.00000
     12       5.8122      2.00000
     13       6.1623      2.00000
     14       6.3614      2.00000
     15       6.7072      2.00000
     16       7.3222      2.00000
     17       7.5536      2.00000
     18       8.8210      0.07819
     19       9.1541      0.00000
     20      11.2917      0.00000
     21      11.7584      0.00000
     22      13.5342      0.00000
     23      14.1204      0.00000
     24      14.2084      0.00000
     25      14.2713      0.00000
     26      15.3004      0.00000
     27      16.9452      0.00000
     28      17.5250      0.00000

 k-point     5 :       0.1053    0.1053    0.0000
  band No.  band energies     occupation 
      1      -4.3538      2.00000
      2       0.3755      2.00000
      3       0.5582      2.00000
      4       0.6444      2.00000
      5       0.7346      2.00000
      6       1.7057      2.00000
      7       2.6679      2.00000
      8       4.9219      2.00000
      9       5.2351      2.00000
     10       5.4865      2.00000
     11       5.5092      2.00000
     12       5.7835      2.00000
     13       5.8355      2.00000
     14       6.4708      2.00000
     15       6.8075      2.00000
     16       7.4246      2.00000
     17       7.6731      2.00000
     18       9.4623      0.00000
     19       9.8053      0.00000
     20      11.8324      0.00000
     21      12.3084      0.00000
     22      13.1751      0.00000
     23      13.3745      0.00000
     24      13.8165      0.00000
     25      14.2248      0.00000
     26      15.2042      0.00000
     27      16.6356      0.00000
     28      17.3087      0.00000

 k-point     6 :       0.1316    0.1316    0.0000
  band No.  band energies     occupation 
      1      -4.2066      2.00000
      2      -0.0016      2.00000
      3       0.2986      2.00000
      4       0.7023      2.00000
      5       0.7273      2.00000
      6       1.8497      2.00000
      7       2.7873      2.00000
      8       4.4695      2.00000
      9       4.7976      2.00000
     10       5.1438      2.00000
     11       5.4906      2.00000
     12       6.1537      2.00000
     13       6.4282      2.00000
     14       6.6331      2.00000
     15       6.9351      2.00000
     16       7.5556      2.00000
     17       7.8382      2.00000
     18      10.1174      0.00000
     19      10.4735      0.00000
     20      12.3981      0.00000
     21      12.5116      0.00000
     22      12.8211      0.00000
     23      12.9400      0.00000
     24      13.4388      0.00000
     25      14.3599      0.00000
     26      15.0631      0.00000
     27      16.3153      0.00000
     28      17.0358      0.00000

 k-point     7 :       0.1579    0.1579    0.0000
  band No.  band energies     occupation 
      1      -4.0271      2.00000
      2      -0.4080      2.00000
      3      -0.1164      2.00000
      4       0.8780      2.00000
      5       0.8924      2.00000
      6       2.0246      2.00000
      7       2.9222      2.00000
      8       4.0455      2.00000
      9       4.4026      2.00000
     10       4.8016      2.00000
     11       5.1448      2.00000
     12       6.6290      2.00000
     13       7.0171      2.00000
     14       7.0572      2.00000
     15       7.0887      2.00000
     16       7.7150      2.00000
     17       8.0728      2.00000
     18      10.7808      0.00000
     19      11.1535      0.00000
     20      11.5391      0.00000
     21      12.4892      0.00000
     22      13.0873      0.00000
     23      13.1322      0.00000
     24      13.6355      0.00000
     25      14.5263      0.00000
     26      14.8406      0.00000
     27      16.0121      0.00000
     28      16.3706      0.00000

 k-point     8 :       0.1842    0.1842    0.0000
  band No.  band energies     occupation 
      1      -3.8155      2.00000
      2      -0.7950      2.00000
      3      -0.5063      2.00000
      4       1.0850      2.00000
      5       1.0947      2.00000
      6       2.2297      2.00000
      7       3.0502      2.00000
      8       3.6508      2.00000
      9       4.0728      2.00000
     10       4.4713      2.00000
     11       4.8089      2.00000
     12       6.8618      2.00000
     13       7.2664      2.00000
     14       7.5978      2.00000
     15       7.6841      2.00000
     16       7.9019      2.00000
     17       8.4368      2.00000
     18      10.6347      0.00000
     19      11.4452      0.00000
     20      11.8378      0.00000
     21      12.1936      0.00000
     22      12.7722      0.00000
     23      13.8430      0.00000
     24      14.3836      0.00000
     25      14.5243      0.00000
     26      14.7254      0.00000
     27      15.5774      0.00000
     28      15.6886      0.00000

 k-point     9 :       0.2105    0.2105    0.0000
  band No.  band energies     occupation 
      1      -3.5720      2.00000
      2      -1.1560      2.00000
      3      -0.8687      2.00000
      4       1.3232      2.00000
      5       1.3296      2.00000
      6       2.4629      2.00000
      7       3.1019      2.00000
      8       3.2858      2.00000
      9       3.8775      2.00000
     10       4.1613      2.00000
     11       4.4897      2.00000
     12       7.0730      2.00000
     13       7.4650      2.00000
     14       7.9906      2.00000
     15       8.1156      2.00000
     16       8.3966      2.00000
     17       8.9699      0.00000
     18       9.7443      0.00000
     19      11.9536      0.00000
     20      12.0999      0.00000
     21      12.5069      0.00000
     22      12.5150      0.00000
     23      14.0370      0.00000
     24      14.6486      0.00000
     25      14.7395      0.00000
     26      14.8880      0.00000
     27      14.9648      0.00000
     28      15.2159      0.00000

 k-point    10 :       0.2368    0.2368    0.0000
  band No.  band energies     occupation 
      1      -3.2970      2.00000
      2      -1.4887      2.00000
      3      -1.2020      2.00000
      4       1.5921      2.00000
      5       1.5955      2.00000
      6       2.7187      2.00000
      7       2.9510      2.00000
      8       2.9855      2.00000
      9       3.8811      2.00000
     10       3.9081      2.00000
     11       4.1914      2.00000
     12       7.2932      2.00000
     13       7.6794      2.00000
     14       8.2911      2.00000
     15       8.3549      2.00000
     16       8.8721      0.00134
     17       9.0942      0.00000
     18       9.5754      0.00000
     19      11.8084      0.00000
     20      12.3158      0.00000
     21      12.7300      0.00000
     22      13.1665      0.00000
     23      13.5223      0.00000
     24      13.9534      0.00000
     25      14.0767      0.00000
     26      15.1084      0.00000
     27      15.2303      0.00000
     28      15.3481      0.00000

 k-point    11 :       0.2632    0.2632    0.0000
  band No.  band energies     occupation 
      1      -2.9911      2.00000
      2      -1.7916      2.00000
      3      -1.5054      2.00000
      4       1.8911      2.00000
      5       1.8916      2.00000
      6       2.6469      2.00000
      7       2.7652      2.00000
      8       2.9748      2.00000
      9       3.6554      2.00000
     10       3.9170      2.00000
     11       4.0994      2.00000
     12       7.5203      2.00000
     13       7.9007      2.00000
     14       8.0210      2.00000
     15       8.5583      2.00000
     16       8.6180      1.99993
     17       9.7201      0.00000
     18      10.1008      0.00000
     19      11.8479      0.00000
     20      12.2487      0.00000
     21      12.9250      0.00000
     22      13.2037      0.00000
     23      13.3012      0.00000
     24      13.3154      0.00000
     25      13.7622      0.00000
     26      14.8542      0.00000
     27      15.3863      0.00000
     28      15.5120      0.00000

 k-point    12 :       0.2895    0.2895    0.0000
  band No.  band energies     occupation 
      1      -2.6548      2.00000
      2      -2.0640      2.00000
      3      -1.7780      2.00000
      4       2.2170      2.00000
      5       2.2198      2.00000
      6       2.3738      2.00000
      7       2.5284      2.00000
      8       3.1109      2.00000
      9       3.6062      2.00000
     10       3.6684      2.00000
     11       4.3626      2.00000
     12       7.1937      2.00000
     13       7.7429      2.00000
     14       8.1127      2.00000
     15       8.8067      0.17491
     16       8.9026      0.00005
     17      10.1819      0.00000
     18      10.4046      0.00000
     19      12.1930      0.00000
     20      12.2831      0.00000
     21      12.3800      0.00000
     22      12.5108      0.00000
     23      12.5904      0.00000
     24      13.8333      0.00000
     25      14.2520      0.00000
     26      14.6249      0.00000
     27      14.7419      0.00000
     28      15.1516      0.00000

 k-point    13 :       0.3158    0.3158    0.0000
  band No.  band energies     occupation 
      1      -2.3053      2.00000
      2      -2.2893      2.00000
      3      -2.0195      2.00000
      4       2.1321      2.00000
      5       2.3055      2.00000
      6       2.5703      2.00000
      7       2.5771      2.00000
      8       3.0086      2.00000
      9       3.4470      2.00000
     10       3.8528      2.00000
     11       4.6649      2.00000
     12       6.3924      2.00000
     13       7.9385      2.00000
     14       8.2851      2.00000
     15       9.0265      0.00000
     16       9.2053      0.00000
     17      10.4145      0.00000
     18      10.5256      0.00000
     19      11.6184      0.00000
     20      11.9077      0.00000
     21      11.9083      0.00000
     22      12.8049      0.00000
     23      12.8306      0.00000
     24      13.9573      0.00000
     25      14.2638      0.00000
     26      14.4194      0.00000
     27      14.6441      0.00000
     28      14.9353      0.00000

 k-point    14 :       0.3421    0.3421    0.0000
  band No.  band energies     occupation 
      1      -2.5151      2.00000
      2      -2.2294      2.00000
      3      -1.8959      2.00000
      4       1.9221      2.00000
      5       2.1065      2.00000
      6       2.8474      2.00000
      7       2.9500      2.00000
      8       2.9619      2.00000
      9       3.2537      2.00000
     10       4.2161      2.00000
     11       4.9925      2.00000
     12       5.6197      2.00000
     13       8.0667      2.00000
     14       8.3643      2.00000
     15       9.1958      0.00000
     16       9.5210      0.00000
     17      10.4775      0.00000
     18      10.6157      0.00000
     19      10.9462      0.00000
     20      11.3685      0.00000
     21      11.4498      0.00000
     22      13.2385      0.00000
     23      13.4607      0.00000
     24      13.5368      0.00000
     25      14.2407      0.00000
     26      14.5972      0.00000
     27      14.7482      0.00000
     28      14.8574      0.00000

 k-point    15 :       0.3684    0.3684    0.0000
  band No.  band energies     occupation 
      1      -2.6931      2.00000
      2      -2.4074      2.00000
      3      -1.4773      2.00000
      4       1.7439      2.00000
      5       1.9354      2.00000
      6       2.6963      2.00000
      7       3.0893      2.00000
      8       3.3537      2.00000
      9       3.3724      2.00000
     10       4.6274      2.00000
     11       4.8789      2.00000
     12       5.3352      2.00000
     13       8.0686      2.00000
     14       8.2815      2.00000
     15       9.2967      0.00000
     16       9.8424      0.00000
     17      10.2765      0.00000
     18      10.4493      0.00000
     19      10.7598      0.00000
     20      11.0210      0.00000
     21      11.2069      0.00000
     22      12.5585      0.00000
     23      14.0887      0.00000
     24      14.1874      0.00000
     25      14.2905      0.00000
     26      14.5900      0.00000
     27      14.8409      0.00000
     28      14.9686      0.00000

 k-point    16 :       0.3947    0.3947    0.0000
  band No.  band energies     occupation 
      1      -2.8390      2.00000
      2      -2.5533      2.00000
      3      -1.0377      2.00000
      4       1.5979      2.00000
      5       1.7940      2.00000
      6       2.5681      2.00000
      7       2.9542      2.00000
      8       3.7769      2.00000
      9       3.8054      2.00000
     10       4.1750      2.00000
     11       5.0736      2.00000
     12       5.6810      2.00000
     13       7.8982      2.00000
     14       8.0101      2.00000
     15       9.3353      0.00000
     16       9.6166      0.00000
     17      10.1582      0.00000
     18      10.3441      0.00000
     19      10.9563      0.00000
     20      10.9701      0.00000
     21      11.2058      0.00000
     22      11.9350      0.00000
     23      13.9638      0.00000
     24      14.4609      0.00000
     25      14.8718      0.00000
     26      14.9373      0.00000
     27      14.9878      0.00000
     28      15.0075      0.00000

 k-point    17 :       0.4211    0.4211    0.0000
  band No.  band energies     occupation 
      1      -2.9527      2.00000
      2      -2.6670      2.00000
      3      -0.5862      2.00000
      4       1.4842      2.00000
      5       1.6833      2.00000
      6       2.4666      2.00000
      7       2.8488      2.00000
      8       3.5177      2.00000
      9       4.2117      2.00000
     10       4.2550      2.00000
     11       5.5505      2.00000
     12       6.0119      2.00000
     13       7.5754      2.00000
     14       7.6027      2.00000
     15       8.9714      0.00000
     16       9.3364      0.00000
     17      10.2303      0.00000
     18      10.4512      0.00000
     19      11.1140      0.00000
     20      11.2172      0.00000
     21      11.3871      0.00000
     22      11.3933      0.00000
     23      13.8664      0.00000
     24      14.2584      0.00000
     25      14.3589      0.00000
     26      14.7352      0.00000
     27      15.0047      0.00000
     28      15.0984      0.00000

 k-point    18 :       0.4474    0.4474    0.0000
[...]
      9       4.6485      2.00000
     10       4.6485      2.00000
     11       7.3553      2.00000
     12       7.3553      2.00000
     13       8.7299      1.58390
     14       8.7299      1.58388
     15       8.8960      0.00010
     16       8.8960      0.00010
     17      10.4210      0.00000
     18      10.4210      0.00000
     19      10.8894      0.00000
     20      10.8894      0.00000
     21      11.1885      0.00000
     22      11.1885      0.00000
     23      12.8963      0.00000
     24      12.8964      0.00000
     25      13.5571      0.00000
     26      13.5572      0.00000
     27      14.1035      0.00000
     28      14.1083      0.00000

 k-point   210 :       0.2368    0.2368    0.5000
  band No.  band energies     occupation 
      1      -2.0563      2.00000
      2      -2.0563      2.00000
      3      -0.2606      2.00000
      4      -0.2606      2.00000
      5       0.0161      2.00000
      6       0.0161      2.00000
      7       3.9042      2.00000
      8       3.9042      2.00000
      9       4.8931      2.00000
     10       4.8931      2.00000
     11       7.5547      2.00000
     12       7.5547      2.00000
     13       8.8864      0.00030
     14       8.8864      0.00030
     15       8.9890      0.00000
     16       8.9890      0.00000
     17       9.7245      0.00000
     18       9.7245      0.00000
     19      11.1780      0.00000
     20      11.1780      0.00000
     21      11.4614      0.00000
     22      11.4614      0.00000
     23      12.7897      0.00000
     24      12.7897      0.00000
     25      13.3582      0.00000
     26      13.3582      0.00000
     27      14.1881      0.00000
     28      14.2025      0.00000

 k-point   211 :       0.2632    0.2632    0.5000
  band No.  band energies     occupation 
      1      -1.7532      2.00000
      2      -1.7532      2.00000
      3      -0.5603      2.00000
      4      -0.5603      2.00000
      5      -0.2844      2.00000
      6      -0.2844      2.00000
      7       4.2022      2.00000
      8       4.2022      2.00000
      9       5.1633      2.00000
     10       5.1633      2.00000
     11       7.7494      2.00000
     12       7.7494      2.00000
     13       8.8398      0.02171
     14       8.8398      0.02171
     15       8.9278      0.00000
     16       8.9278      0.00000
     17       9.0366      0.00000
     18       9.0366      0.00000
     19      11.5797      0.00000
     20      11.5797      0.00000
     21      11.6896      0.00000
     22      11.6896      0.00000
     23      12.9377      0.00000
     24      12.9377      0.00000
     25      13.3002      0.00000
     26      13.3003      0.00000
     27      14.3645      0.00000
     28      14.3657      0.00000

 k-point   212 :       0.2895    0.2895    0.5000
  band No.  band energies     occupation 
      1      -1.4224      2.00000
      2      -1.4224      2.00000
      3      -0.8272      2.00000
      4      -0.8272      2.00000
      5      -0.5546      2.00000
      6      -0.5546      2.00000
      7       4.5298      2.00000
      8       4.5298      2.00000
      9       5.4569      2.00000
     10       5.4569      2.00000
     11       7.9073      2.00000
     12       7.9073      2.00000
     13       8.1994      2.00000
     14       8.1994      2.00000
     15       8.7980      0.26668
     16       8.7980      0.26667
     17       8.9009      0.00006
     18       8.9009      0.00006
     19      11.6925      0.00000
     20      11.6925      0.00000
     21      11.8682      0.00000
     22      11.8682      0.00000
     23      13.4328      0.00000
     24      13.4328      0.00000
     25      13.5077      0.00000
     26      13.5078      0.00000
     27      14.1051      0.00000
     28      14.1108      0.00000

 k-point   213 :       0.3158    0.3158    0.5000
  band No.  band energies     occupation 
      1      -1.1303      2.00000
      2      -1.1303      2.00000
      3      -0.9954      2.00000
      4      -0.9954      2.00000
      5      -0.7941      2.00000
      6      -0.7941      2.00000
      7       4.8862      2.00000
      8       4.8862      2.00000
      9       5.7706      2.00000
     10       5.7706      2.00000
     11       7.4443      2.00000
     12       7.4443      2.00000
     13       7.9987      2.00000
     14       7.9987      2.00000
     15       8.6484      1.99819
     16       8.6484      1.99819
     17       8.9330      0.00000
     18       8.9330      0.00000
     19      11.5808      0.00000
     20      11.5808      0.00000
     21      11.9407      0.00000
     22      11.9407      0.00000
     23      13.3875      0.00000
     24      13.3876      0.00000
     25      14.0227      0.00000
     26      14.0282      0.00000
     27      14.0672      0.00000
     28      14.0748      0.00000

 k-point   214 :       0.3421    0.3421    0.5000
  band No.  band energies     occupation 
      1      -1.2900      2.00000
      2      -1.2900      2.00000
      3      -1.0024      2.00000
      4      -1.0024      2.00000
      5      -0.6527      2.00000
      6      -0.6526      2.00000
      7       5.2701      2.00000
      8       5.2701      2.00000
      9       6.0995      2.00000
     10       6.0995      2.00000
     11       6.7074      2.00000
     12       6.7074      2.00000
     13       7.9924      2.00000
     14       7.9924      2.00000
     15       8.5025      2.00000
     16       8.5025      2.00000
     17       9.0531      0.00000
     18       9.0531      0.00000
     19      11.4460      0.00000
     20      11.4460      0.00000
     21      11.8982      0.00000
     22      11.8982      0.00000
     23      12.7191      0.00000
     24      12.7191      0.00000
     25      14.2772      0.00000
     26      14.2772      0.00000
     27      14.6774      0.00000
     28      14.6804      0.00000

 k-point   215 :       0.3684    0.3684    0.5000
  band No.  band energies     occupation 
      1      -1.4635      2.00000
      2      -1.4635      2.00000
      3      -1.1791      2.00000
      4      -1.1791      2.00000
      5      -0.2390      2.00000
      6      -0.2390      2.00000
      7       5.6796      2.00000
      8       5.6796      2.00000
      9       5.9912      2.00000
     10       5.9912      2.00000
     11       6.4359      2.00000
     12       6.4359      2.00000
     13       7.9336      2.00000
     14       7.9336      2.00000
     15       8.3725      2.00000
     16       8.3725      2.00000
     17       9.2061      0.00000
     18       9.2061      0.00000
     19      11.3194      0.00000
     20      11.3194      0.00000
     21      11.8275      0.00000
     22      11.8275      0.00000
     23      12.1167      0.00000
     24      12.1167      0.00000
     25      13.7659      0.00000
     26      13.7659      0.00000
     27      15.2863      0.00000
     28      15.2938      0.00000

 k-point   216 :       0.3947    0.3947    0.5000
  band No.  band energies     occupation 
      1      -1.6074      2.00000
      2      -1.6074      2.00000
      3      -1.3240      2.00000
      4      -1.3240      2.00000
      5       0.1981      2.00000
      6       0.1981      2.00000
      7       5.3040      2.00000
      8       5.3040      2.00000
      9       6.1132      2.00000
     10       6.1132      2.00000
     11       6.7678      2.00000
     12       6.7678      2.00000
     13       7.8600      2.00000
     14       7.8600      2.00000
     15       8.2655      2.00000
     16       8.2655      2.00000
     17       9.3078      0.00000
     18       9.3078      0.00000
     19      11.2132      0.00000
     20      11.2132      0.00000
     21      11.5877      0.00000
     22      11.5877      0.00000
     23      11.8035      0.00000
     24      11.8035      0.00000
     25      13.1784      0.00000
     26      13.1784      0.00000
     27      15.7128      0.00000
     28      15.7554      0.00000

 k-point   217 :       0.4211    0.4211    0.5000
  band No.  band energies     occupation 
      1      -1.7198      2.00000
      2      -1.7198      2.00000
      3      -1.4368      2.00000
      4      -1.4368      2.00000
      5       0.6487      2.00000
      6       0.6487      2.00000
      7       4.6578      2.00000
      8       4.6578      2.00000
      9       6.5650      2.00000
     10       6.5650      2.00000
     11       7.0753      2.00000
     12       7.0753      2.00000
     13       7.7927      2.00000
     14       7.7927      2.00000
     15       8.1875      2.00000
     16       8.1875      2.00000
     17       9.2634      0.00000
     18       9.2634      0.00000
     19      11.1337      0.00000
     20      11.1337      0.00000
     21      11.2485      0.00000
     22      11.2485      0.00000
     23      11.7900      0.00000
     24      11.7900      0.00000
     25      12.6425      0.00000
     26      12.6425      0.00000
     27      15.4136      0.00000
     28      15.4226      0.00000

 k-point   218 :       0.4474    0.4474    0.5000
  band No.  band energies     occupation 
      1      -1.8003      2.00000
      2      -1.8003      2.00000
      3      -1.5175      2.00000
      4      -1.5175      2.00000
      5       1.0922      2.00000
      6       1.0922      2.00000
      7       4.0738      2.00000
      8       4.0738      2.00000
      9       7.0249      2.00000
     10       7.0249      2.00000
     11       7.3283      2.00000
     12       7.3283      2.00000
     13       7.7436      2.00000
     14       7.7436      2.00000
     15       8.1436      2.00000
     16       8.1436      2.00000
     17       9.0255      0.00000
     18       9.0255      0.00000
     19      11.0833      0.00000
     20      11.0833      0.00000
     21      11.0851      0.00000
     22      11.0851      0.00000
     23      11.8307      0.00000
     24      11.8307      0.00000
     25      12.2000      0.00000
     26      12.2000      0.00000
     27      14.9650      0.00000
     28      14.9650      0.00000

 k-point   219 :       0.4737    0.4737    0.5000
  band No.  band energies     occupation 
      1      -1.8487      2.00000
      2      -1.8487      2.00000
      3      -1.5660      2.00000
      4      -1.5660      2.00000
      5       1.4725      2.00000
      6       1.4725      2.00000
      7       3.6088      2.00000
      8       3.6088      2.00000
      9       7.4492      2.00000
     10       7.4492      2.00000
     11       7.4916      2.00000
     12       7.4916      2.00000
     13       7.7344      2.00000
     14       7.7344      2.00000
     15       8.1326      2.00000
     16       8.1326      2.00000
     17       8.6662      1.99110
     18       8.6662      1.99110
     19      11.0311      0.00000
     20      11.0311      0.00000
     21      11.0668      0.00000
     22      11.0668      0.00000
     23      11.8950      0.00000
     24      11.8950      0.00000
     25      11.8954      0.00000
     26      11.8954      0.00000
     27      14.6501      0.00000
     28      14.6501      0.00000

 k-point   220 :       0.5000    0.5000    0.5000
  band No.  band energies     occupation 
      1      -1.8648      2.00000
      2      -1.8648      2.00000
      3      -1.5822      2.00000
      4      -1.5822      2.00000
      5       1.6435      2.00000
      6       1.6435      2.00000
      7       3.4096      2.00000
      8       3.4096      2.00000
      9       7.5460      2.00000
     10       7.5460      2.00000
     11       7.6110      2.00000
     12       7.6110      2.00000
     13       7.8299      2.00000
     14       7.8299      2.00000
     15       8.1349      2.00000
     16       8.1349      2.00000
     17       8.4189      2.00000
     18       8.4189      2.00000
     19      11.0212      0.00000
     20      11.0212      0.00000
     21      11.0654      0.00000
     22      11.0654      0.00000
     23      11.7825      0.00000
     24      11.7825      0.00000
     25      11.9280      0.00000
     26      11.9280      0.00000
     27      14.5346      0.00000
     28      14.5347      0.00000


--------------------------------------------------------------------------------------------------------


 soft charge-density along one line, spin component           1
         0         1         2         3         4         5         6         7         8         9
 total charge-density along one line
 
 pseudopotential strength for first ion, spin component:           1
 18.062  25.198  -0.000  -0.000   0.000  -0.000  -0.001   0.000
 25.198  35.158  -0.000  -0.000   0.000  -0.000  -0.001   0.000
 -0.000  -0.000   4.118   0.000  -0.000   7.671   0.000  -0.000
 -0.000  -0.000   0.000   4.117   0.000   0.000   7.670   0.000
  0.000   0.000  -0.000   0.000   4.116  -0.000   0.000   7.668
 -0.000  -0.000   7.671   0.000  -0.000  14.301   0.000  -0.000
 -0.001  -0.001   0.000   7.670   0.000   0.000  14.300   0.000
  0.000   0.000  -0.000   0.000   7.668  -0.000   0.000  14.297
 total augmentation occupancy for first ion, spin component:           1
  2.000   0.000   0.000   0.000   0.000   0.000   0.000   0.000
  0.000   0.000   0.000   0.000   0.000   0.000   0.000   0.000
  0.000   0.000   0.667   0.000   0.000   0.000   0.000   0.000
  0.000   0.000   0.000   0.667   0.000   0.000   0.000   0.000
  0.000   0.000   0.000   0.000   0.667   0.000   0.000   0.000
  0.000   0.000   0.000   0.000   0.000   0.000   0.000   0.000
  0.000   0.000   0.000   0.000   0.000   0.000   0.000   0.000
  0.000   0.000   0.000   0.000   0.000   0.000   0.000   0.000


------------------------ aborting loop because EDIFF is reached ----------------------------------------


 


 total charge     
 
# of ion     s       p       d       tot
----------------------------------------
  1        0.802   0.821   0.000   1.622
  2        0.802   0.821   0.000   1.622
  3        0.802   0.821   0.000   1.622
  4        0.802   0.821   0.000   1.622
  5        0.808   0.789   0.000   1.597
  6        0.808   0.789   0.000   1.597
  7        0.808   0.789   0.000   1.597
  8        0.808   0.789   0.000   1.597
------------------------------------------------
tot        6.440   6.438   0.000  12.878
 
    CHARGE:  cpu time    0.1440: real time    0.1445
    FORLOC:  cpu time    0.0010: real time    0.0011
    FORNL :  cpu time    0.9629: real time    0.9649
    FORCOR:  cpu time    0.0460: real time    0.0461
    FORHAR:  cpu time    0.0060: real time    0.0065
    OFIELD:  cpu time    0.0000: real time    0.0004

 VOLUME and BASIS-vectors are now :
 -----------------------------------------------------------------------------
  energy-cutoff  :      520.00
  volume of cell :      122.53
      direct lattice vectors                 reciprocal lattice vectors
     2.455883162 -4.653239982 -0.000000005     0.203592748 -0.107452012  0.000000000
     2.455883161  4.653239994  0.000000010     0.203592747  0.107452012 -0.000000000
    -0.000000001  0.000000016  5.360907350    -0.000000000 -0.000000000  0.186535587

  length of vectors
     5.261559126  5.261559136  5.360907350     0.230208475  0.230208474  0.186535587


 FORCES acting on ions
    electron-ion (+dipol)            ewald-force                    non-local-force                 convergence-correction
 -----------------------------------------------------------------------------------------------
   -.521E-02 -.627E-04 -.561E+00   0.550E-02 0.689E-06 0.787E+00   -.103E-02 -.451E-04 0.384E-01   0.350E-04 0.560E-04 -.117E+00
   0.505E-02 -.756E-04 0.561E+00   -.550E-02 0.546E-06 -.787E+00   0.111E-02 0.774E-04 -.384E-01   0.302E-04 0.393E-04 0.117E+00
   0.512E-02 -.117E-03 -.561E+00   -.550E-02 0.720E-06 0.787E+00   0.109E-02 0.126E-03 0.384E-01   -.194E-04 0.240E-04 -.117E+00
   -.502E-02 0.343E-04 0.561E+00   0.550E-02 0.575E-06 -.787E+00   -.113E-02 -.738E-04 -.385E-01   -.449E-04 0.178E-05 0.117E+00
   0.118E+00 0.265E+01 -.275E-04   -.926E-06 -.329E+01 0.438E-06   -.169E+00 0.208E+00 0.636E-04   0.385E-02 0.172E+00 -.253E-04
   0.119E+00 0.265E+01 0.107E-03   0.351E-06 -.329E+01 -.977E-06   -.169E+00 0.208E+00 -.112E-03   0.382E-02 0.172E+00 -.630E-05
   -.118E+00 -.264E+01 0.693E-04   0.834E-06 0.329E+01 0.913E-06   0.169E+00 -.208E+00 -.804E-04   -.384E-02 -.172E+00 0.256E-05
   -.119E+00 -.264E+01 -.195E-03   -.305E-06 0.329E+01 -.441E-06   0.169E+00 -.208E+00 0.166E-03   -.383E-02 -.172E+00 0.334E-04
 -----------------------------------------------------------------------------------------------
   -.315E-04 -.552E-04 0.843E-05   0.379E-16 0.533E-14 -.346E-14   0.230E-04 0.438E-04 -.166E-05   0.660E-06 0.928E-05 -.921E-06
 
 
 POSITION                                       TOTAL-FORCE (eV/Angst)
 -----------------------------------------------------------------------------------
      2.45639      0.00000      4.13621        -0.000712     -0.000051      0.147200
      2.45538      0.00000      1.22469         0.000697      0.000042     -0.147194
      4.91126      0.00000      1.45576         0.000700      0.000035      0.147182
      0.00050      0.00000      3.90515        -0.000689     -0.000037     -0.147180
      2.45588     -2.08024      2.68045        -0.046309     -0.266496      0.000011
      2.45588      2.57300      0.00000        -0.046302     -0.266485     -0.000013
      2.45588      2.08024      2.68045         0.046312      0.266503     -0.000008
      2.45588     -2.57300      0.00000         0.046302      0.266488      0.000003
 -----------------------------------------------------------------------------------
    total drift:                               -0.000008     -0.000002      0.000006


--------------------------------------------------------------------------------------------------------



  FREE ENERGIE OF THE ION-ELECTRON SYSTEM (eV)
  ---------------------------------------------------
  free  energy   TOTEN  =       -42.33709804 eV

  energy  without entropy=      -42.33383488  energy(sigma->0) =      -42.33546646
 


--------------------------------------------------------------------------------------------------------


    POTLOK:  cpu time    0.0490: real time    0.0486


--------------------------------------------------------------------------------------------------------


     LOOP+:  cpu time   35.9165: real time   36.2825
    4ORBIT:  cpu time    0.0000: real time    0.0001
 


 total charge     
 
# of ion     s       p       d       tot
----------------------------------------
  1        0.802   0.821   0.000   1.622
  2        0.802   0.821   0.000   1.622
  3        0.802   0.821   0.000   1.622
  4        0.802   0.821   0.000   1.622
  5        0.808   0.789   0.000   1.597
  6        0.808   0.789   0.000   1.597
  7        0.808   0.789   0.000   1.597
  8        0.808   0.789   0.000   1.597
------------------------------------------------
tot        6.440   6.438   0.000  12.878
 

 total amount of memory used by VASP on root node    40748. kBytes
========================================================================

   base      :      30000. kBytes
   nonlr-proj:        761. kBytes
   fftplans  :       2005. kBytes
   grid      :        883. kBytes
   one-center:          3. kBytes
   wavefun   :       7096. kBytes
 
  
  
 General timing and accounting informations for this job:
 ========================================================
  
                  Total CPU time used (sec):       44.633
                            User time (sec):       40.625
                          System time (sec):        4.008
                         Elapsed time (sec):       45.457
  
                   Maximum memory used (kb):      216608.
                   Average memory used (kb):           0.
  
                          Minor page faults:        55626
                          Major page faults:            0
                 Voluntary context switches:         2093
