matgen-band                             
           1
     2.455883   -4.653240   -0.000000
     2.455883    4.653240    0.000000
    -0.000000    0.000000    5.360907
   Si
   8
Direct configuration=     1
   0.50010233  0.50010233  0.77155089
   0.49989767  0.49989767  0.22844911
   0.99989767  0.99989767  0.27155089
   0.00010233  0.00010233  0.72844911
   0.72352619  0.27647381  0.50000000
   0.22352619  0.77647381  0.00000000
   0.27647381  0.72352619  0.50000000
   0.77647381  0.22352619  0.00000000
