 running on   48 total cores
 distrk:  each k-point on   48 cores,    1 groups
 distr:  one band on   12 cores,    4 groups
 using from now: INCAR     
 vasp.5.4.1 24Jun15 (build Nov 23 2015 09:58:10) complex                        
  
 POSCAR found type information on POSCAR  Si
 POSCAR found :  1 types and       8 ions
 scaLAPACK will be used

 ----------------------------------------------------------------------------- 
|                                                                             |
|  ADVICE TO THIS USER RUNNING 'VASP/VAMP'   (HEAR YOUR MASTER'S VOICE ...):  |
|                                                                             |
|      You have a (more or less) 'small supercell' and for smaller cells      |
|      it is recommended  to use the reciprocal-space projection scheme!      |
|      The real space optimization is not  efficient for small cells and it   |
|      is also less accurate ...                                              |
|      Therefore set LREAL=.FALSE. in the  INCAR file                         |
|                                                                             |
 ----------------------------------------------------------------------------- 

 LDA part: xc-table for Pade appr. of Perdew
 WARNING: stress and forces are not correct
 POSCAR, INCAR and KPOINTS ok, starting setup
 WARNING: small aliasing (wrap around) errors must be expected
 FFT: planning ...
 WAVECAR not read
 charge-density read from file: matgen-scf                              
 WARNING: random wavefunctions but no delay for mixing, default for NELMDL
 entering main loop
       N       E                     dE             d eps       ncg     rms          rms(c)
DAV:   1     0.519632268757E+02    0.51963E+02   -0.12476E+04 12320   0.971E+02
DAV:   2    -0.383901055208E+02   -0.90353E+02   -0.83426E+02 15132   0.142E+02
DAV:   3    -0.422978643263E+02   -0.39078E+01   -0.38085E+01 15880   0.251E+01
DAV:   4    -0.423367572710E+02   -0.38893E-01   -0.38795E-01 15148   0.314E+00
DAV:   5    -0.423370939253E+02   -0.33665E-03   -0.33658E-03 15200   0.277E-01
DAV:   6    -0.423370980377E+02   -0.41124E-05   -0.41117E-05 12592   0.328E-02
   1 F= -.42337098E+02 E0= -.42335466E+02  d E =-.326316E-02
