       N       E                     dE             d eps       ncg     rms          rms(c)
DAV:   1     0.438787005111E+02    0.43879E+02   -0.41767E+03 18432   0.574E+02
DAV:   2    -0.340574463995E+01   -0.47284E+02   -0.44055E+02 25136   0.100E+02
DAV:   3    -0.589305272297E+01   -0.24873E+01   -0.24770E+01 23832   0.246E+01
DAV:   4    -0.593021795086E+01   -0.37165E-01   -0.37163E-01 25112   0.348E+00
DAV:   5    -0.593096683264E+01   -0.74888E-03   -0.74888E-03 24640   0.468E-01    0.106E+01
DAV:   6    -0.603163063038E+01   -0.10066E+00   -0.19138E-03 23752   0.223E-01    0.957E+00
DAV:   7    -0.607801241480E+01   -0.46382E-01   -0.71815E-02 19536   0.135E+00    0.262E+00
DAV:   8    -0.616633059290E+01   -0.88318E-01   -0.10965E-02 20080   0.602E-01    0.137E+00
DAV:   9    -0.618636067492E+01   -0.20030E-01   -0.24419E-03 22720   0.260E-01    0.774E-01
DAV:  10    -0.619893241565E+01   -0.12572E-01   -0.11047E-03 19840   0.157E-01    0.312E-01
DAV:  11    -0.619912092121E+01   -0.18851E-03   -0.40023E-05 16432   0.364E-02    0.200E-01
DAV:  12    -0.619934483205E+01   -0.22391E-03   -0.27792E-04 19528   0.727E-02    0.591E-02
DAV:  13    -0.619938938046E+01   -0.44548E-04   -0.12957E-05 11224   0.189E-02
   1 F= -.61993894E+01 E0= -.61982614E+01  d E =-.619939E+01  mag=     0.0060
       N       E                     dE             d eps       ncg     rms          rms(c)
DAV:   1    -0.619941919988E+01   -0.74368E-04   -0.21446E-05 15240   0.224E-02    0.223E-02
DAV:   2    -0.619942028547E+01   -0.10856E-05   -0.89370E-07 10208   0.551E-03    0.158E-02
DAV:   3    -0.619942169504E+01   -0.14096E-05   -0.57956E-07 10080   0.408E-03    0.910E-03
DAV:   4    -0.619942170021E+01   -0.51705E-08   -0.47244E-08 10008   0.134E-03    0.843E-03
DAV:   5    -0.619942178805E+01   -0.87833E-07   -0.11397E-07  9912   0.185E-03    0.106E-02
DAV:   6    -0.619942151338E+01    0.27467E-06   -0.13241E-07  9888   0.203E-03
   2 F= -.61994215E+01 E0= -.61982924E+01  d E =-.321329E-04  mag=    -0.0004
       N       E                     dE             d eps       ncg     rms          rms(c)
DAV:   1    -0.619942467190E+01   -0.28839E-05   -0.16418E-05  9800   0.165E-02    0.143E-02
DAV:   2    -0.619942462934E+01    0.42566E-07   -0.12877E-06  9792   0.583E-03    0.772E-03
DAV:   3    -0.619942441432E+01    0.21502E-06   -0.13752E-07  9720   0.239E-03    0.375E-03
DAV:   4    -0.619942425999E+01    0.15432E-06   -0.81764E-08  9736   0.142E-03    0.321E-03
DAV:   5    -0.619942417688E+01    0.83110E-07   -0.15024E-07  9640   0.158E-03    0.253E-03
DAV:   6    -0.619942418613E+01   -0.92483E-08   -0.31359E-08  9680   0.783E-04
   3 F= -.61994242E+01 E0= -.61982951E+01  d E =-.348057E-04  mag=    -0.0000
       N       E                     dE             d eps       ncg     rms          rms(c)
DAV:   1    -0.619942970807E+01   -0.55312E-05   -0.66790E-05  9672   0.333E-02    0.136E-02
DAV:   2    -0.619942949543E+01    0.21264E-06   -0.51608E-06  9648   0.117E-02    0.677E-03
DAV:   3    -0.619942885980E+01    0.63564E-06   -0.51526E-07  9648   0.454E-03    0.636E-03
DAV:   4    -0.619942763125E+01    0.12285E-05   -0.36709E-06  9584   0.765E-03    0.444E-03
DAV:   5    -0.619942759565E+01    0.35599E-07   -0.28733E-07  9552   0.274E-03    0.555E-03
DAV:   6    -0.619942758891E+01    0.67432E-08   -0.18616E-08  9576   0.861E-04
   4 F= -.61994276E+01 E0= -.61982986E+01  d E =-.382085E-04  mag=    -0.0000
       N       E                     dE             d eps       ncg     rms          rms(c)
DAV:   1    -0.619943689993E+01   -0.93043E-05   -0.28177E-04 19296   0.666E-02    0.168E-02
DAV:   2    -0.619943473831E+01    0.21616E-05   -0.87416E-06  9792   0.155E-02    0.161E-02
DAV:   3    -0.619943004383E+01    0.46945E-05   -0.24081E-06  9576   0.803E-03    0.113E-02
DAV:   4    -0.619942602137E+01    0.40225E-05   -0.83515E-06  9576   0.116E-02    0.888E-03
DAV:   5    -0.619942607800E+01   -0.56628E-07   -0.66926E-07  9552   0.430E-03    0.124E-02
DAV:   6    -0.619942608797E+01   -0.99742E-08   -0.89019E-08  9576   0.167E-03
   5 F= -.61994261E+01 E0= -.61982973E+01  d E =-.367075E-04  mag=    -0.0000
       N       E                     dE             d eps       ncg     rms          rms(c)
DAV:   1    -0.619943575094E+01   -0.96729E-05   -0.14641E-04 12536   0.485E-02    0.142E-02
DAV:   2    -0.619943472147E+01    0.10295E-05   -0.81686E-06  9608   0.145E-02    0.203E-02
DAV:   3    -0.619943400789E+01    0.71358E-06   -0.10012E-06  9528   0.591E-03    0.219E-02
DAV:   4    -0.619942798858E+01    0.60193E-05   -0.82499E-06  9528   0.115E-02    0.688E-03
DAV:   5    -0.619942803169E+01   -0.43113E-07   -0.91756E-07  9512   0.457E-03    0.123E-02
DAV:   6    -0.619942813450E+01   -0.10281E-06   -0.75858E-08  9528   0.165E-03
   6 F= -.61994281E+01 E0= -.61982992E+01  d E =-.387540E-04  mag=     0.0000
       N       E                     dE             d eps       ncg     rms          rms(c)
DAV:   1    -0.619942804959E+01   -0.17895E-07   -0.27535E-06  9528   0.669E-03    0.168E-02
DAV:   2    -0.619942804868E+01    0.90870E-09   -0.22572E-07  9504   0.251E-03    0.172E-02
DAV:   3    -0.619942807940E+01   -0.30720E-07   -0.94596E-08  9504   0.137E-03    0.221E-02
DAV:   4    -0.619942818708E+01   -0.10768E-06   -0.52710E-07  9496   0.293E-03    0.553E-03
DAV:   5    -0.619942822164E+01   -0.34565E-07   -0.44075E-08  9464   0.104E-03    0.360E-03
DAV:   6    -0.619942822295E+01   -0.13083E-08   -0.40272E-09  9480   0.330E-04
   7 F= -.61994282E+01 E0= -.61982993E+01  d E =-.388425E-04  mag=    -0.0000
       N       E                     dE             d eps       ncg     rms          rms(c)
DAV:   1    -0.619942825246E+01   -0.30821E-07   -0.44643E-07  9480   0.272E-03    0.433E-03
DAV:   2    -0.619942827227E+01   -0.19810E-07   -0.36166E-08  9472   0.985E-04    0.304E-03
DAV:   3    -0.619942830719E+01   -0.34914E-07   -0.42871E-09  9432   0.418E-04    0.190E-03
DAV:   4    -0.619942836527E+01   -0.58082E-07   -0.76693E-09  9432   0.386E-04    0.580E-04
DAV:   5    -0.619942836504E+01    0.23476E-09   -0.73148E-10  9424   0.148E-04    0.662E-04
DAV:   6    -0.619942836560E+01   -0.56673E-09   -0.63184E-11  9432   0.543E-05
   8 F= -.61994284E+01 E0= -.61982994E+01  d E =-.389851E-04  mag=    -0.0000
       N       E                     dE             d eps       ncg     rms          rms(c)
DAV:   1    -0.619942839749E+01   -0.32450E-07   -0.16908E-07  9424   0.167E-03    0.496E-04
DAV:   2    -0.619942839784E+01   -0.35641E-09   -0.12837E-08  9408   0.584E-04    0.415E-04
DAV:   3    -0.619942839405E+01    0.37882E-08   -0.13523E-09  9408   0.228E-04    0.464E-04
DAV:   4    -0.619942836164E+01    0.32411E-07   -0.98810E-09  9408   0.397E-04    0.224E-04
DAV:   5    -0.619942836364E+01   -0.19962E-08   -0.76365E-10  9384   0.142E-04    0.283E-04
DAV:   6    -0.619942836492E+01   -0.12853E-08   -0.55691E-11  9392   0.474E-05
   9 F= -.61994284E+01 E0= -.61982994E+01  d E =-.389845E-04  mag=    -0.0000
       N       E                     dE             d eps       ncg     rms          rms(c)
DAV:   1    -0.619942837203E+01   -0.83894E-08   -0.43390E-08  9376   0.848E-04    0.218E-04
DAV:   2    -0.619942837141E+01    0.61345E-09   -0.32638E-09  9384   0.294E-04    0.265E-04
DAV:   3    -0.619942837034E+01    0.10724E-08   -0.33413E-10  9336   0.112E-04    0.298E-04
DAV:   4    -0.619942835388E+01    0.16459E-07   -0.24269E-09  9336   0.196E-04    0.983E-05
DAV:   5    -0.619942835308E+01    0.79831E-09   -0.22842E-10  9328   0.742E-05    0.164E-04
DAV:   6    -0.619942835430E+01   -0.12104E-08   -0.18890E-11  9336   0.268E-05
  10 F= -.61994284E+01 E0= -.61982994E+01  d E =-.389738E-04  mag=    -0.0000
       N       E                     dE             d eps       ncg     rms          rms(c)
DAV:   1    -0.619942855943E+01   -0.20635E-06   -0.13443E-06  9328   0.540E-03    0.638E-04
DAV:   2    -0.619942856633E+01   -0.68954E-08   -0.88260E-08  9336   0.149E-03    0.517E-04
DAV:   3    -0.619942856370E+01    0.26245E-08   -0.85341E-09  9328   0.571E-04    0.591E-04
DAV:   4    -0.619942854986E+01    0.13842E-07   -0.26654E-09  9336   0.288E-04    0.409E-04
DAV:   5    -0.619942852204E+01    0.27822E-07   -0.76314E-09  9328   0.358E-04    0.330E-04
DAV:   6    -0.619942852150E+01    0.54183E-09   -0.72845E-10  9336   0.143E-04
  11 F= -.61994285E+01 E0= -.61982996E+01  d E =-.167202E-06  mag=     0.0000
       N       E                     dE             d eps       ncg     rms          rms(c)
DAV:   1    -0.619942888909E+01   -0.36705E-06   -0.12068E-05  9336   0.162E-02    0.254E-03
DAV:   2    -0.619942895375E+01   -0.64660E-07   -0.79308E-07  9336   0.447E-03    0.132E-03
DAV:   3    -0.619942893822E+01    0.15528E-07   -0.76208E-08  9336   0.171E-03    0.141E-03
DAV:   4    -0.619942886470E+01    0.73519E-07   -0.35068E-08  9336   0.958E-04    0.912E-04
DAV:   5    -0.619942881086E+01    0.53840E-07   -0.39900E-08  9336   0.845E-04    0.107E-03
DAV:   6    -0.619942880662E+01    0.42428E-08   -0.35380E-09  9320   0.335E-04
  12 F= -.61994288E+01 E0= -.61982999E+01  d E =-.452325E-06  mag=     0.0000
