   8   8   0   0
  0.1530648E+02  0.5259579E-09  0.5259579E-09  0.5360681E-09  0.5000000E-16
  1.000000000000000E-004
  CAR 
 matgen-relax                            
     16.29898120     -5.61115581  301      9.10185404      1.00000000
     -5.611  0.0000E+00  0.0000E+00
     -5.538  0.0000E+00  0.0000E+00
     -5.465  0.0000E+00  0.0000E+00
     -5.392  0.0000E+00  0.0000E+00
     -5.319  0.0000E+00  0.0000E+00
     -5.246  0.0000E+00  0.0000E+00
     -5.173  0.0000E+00  0.0000E+00
     -5.100  0.0000E+00  0.0000E+00
     -5.027  0.0000E+00  0.0000E+00
     -4.954  0.0000E+00  0.0000E+00
     -4.881  0.1388E-16  0.1014E-17
     -4.808  0.1226E-10  0.8956E-12
     -4.735  0.1753E-06  0.1280E-07
     -4.662  0.5677E-04  0.4159E-05
     -4.589  0.1371E-02  0.1043E-03
     -4.516  0.5573E-02  0.5113E-03
     -4.443  0.7159E-02  0.1034E-02
     -4.370  0.1210E-01  0.1918E-02
     -4.297  0.9666E-02  0.2624E-02
     -4.224  0.1462E-01  0.3692E-02
     -4.150  0.1513E-01  0.4797E-02
     -4.077  0.1430E-01  0.5842E-02
     -4.004  0.1781E-01  0.7143E-02
     -3.931  0.2050E-01  0.8640E-02
     -3.858  0.1541E-01  0.9765E-02
     -3.785  0.2064E-01  0.1127E-01
     -3.712  0.2252E-01  0.1292E-01
     -3.639  0.2186E-01  0.1451E-01
     -3.566  0.2166E-01  0.1610E-01
     -3.493  0.2537E-01  0.1795E-01
     -3.420  0.2699E-01  0.1992E-01
     -3.347  0.1730E-01  0.2118E-01
     -3.274  0.2666E-01  0.2313E-01
     -3.201  0.3116E-01  0.2541E-01
     -3.128  0.3081E-01  0.2766E-01
     -3.055  0.2864E-01  0.2975E-01
     -2.982  0.2691E-01  0.3171E-01
     -2.909  0.2360E-01  0.3344E-01
     -2.836  0.3039E-01  0.3566E-01
     -2.763  0.3238E-01  0.3802E-01
     -2.690  0.3310E-01  0.4044E-01
     -2.617  0.3262E-01  0.4282E-01
     -2.544  0.2706E-01  0.4480E-01
     -2.471  0.3595E-01  0.4742E-01
     -2.398  0.3769E-01  0.5018E-01
     -2.325  0.2962E-01  0.5234E-01
     -2.252  0.3029E-01  0.5455E-01
     -2.179  0.3574E-01  0.5716E-01
     -2.106  0.3780E-01  0.5992E-01
     -2.033  0.3635E-01  0.6258E-01
     -1.959  0.4232E-01  0.6567E-01
     -1.886  0.3547E-01  0.6826E-01
     -1.813  0.4067E-01  0.7123E-01
     -1.740  0.3872E-01  0.7406E-01
     -1.667  0.3101E-01  0.7632E-01
     -1.594  0.3986E-01  0.7923E-01
     -1.521  0.4587E-01  0.8258E-01
     -1.448  0.4185E-01  0.8564E-01
     -1.375  0.3830E-01  0.8844E-01
     -1.302  0.3392E-01  0.9091E-01
     -1.229  0.5276E-01  0.9477E-01
     -1.156  0.4870E-01  0.9832E-01
     -1.083  0.3789E-01  0.1011E+00
     -1.010  0.4023E-01  0.1040E+00
     -0.937  0.3245E-01  0.1064E+00
     -0.864  0.5460E-01  0.1104E+00
     -0.791  0.6168E-01  0.1149E+00
     -0.718  0.4109E-01  0.1179E+00
     -0.645  0.2976E-01  0.1201E+00
     -0.572  0.4357E-01  0.1232E+00
     -0.499  0.5026E-01  0.1269E+00
     -0.426  0.6553E-01  0.1317E+00
     -0.353  0.4254E-01  0.1348E+00
     -0.280  0.3968E-01  0.1377E+00
     -0.207  0.5851E-01  0.1420E+00
     -0.134  0.4604E-01  0.1453E+00
     -0.061  0.5232E-01  0.1492E+00
      0.012  0.5525E-01  0.1532E+00
      0.085  0.4776E-01  0.1567E+00
      0.159  0.5565E-01  0.1608E+00
      0.232  0.5352E-01  0.1647E+00
      0.305  0.4685E-01  0.1681E+00
      0.378  0.5006E-01  0.1717E+00
      0.451  0.5672E-01  0.1759E+00
      0.524  0.6217E-01  0.1804E+00
      0.597  0.5365E-01  0.1843E+00
      0.670  0.5966E-01  0.1887E+00
      0.743  0.6629E-01  0.1935E+00
      0.816  0.6032E-01  0.1979E+00
      0.889  0.5919E-01  0.2023E+00
      0.962  0.5657E-01  0.2064E+00
      1.035  0.5426E-01  0.2104E+00
      1.108  0.5420E-01  0.2143E+00
      1.181  0.5098E-01  0.2180E+00
      1.254  0.4908E-01  0.2216E+00
      1.327  0.6590E-01  0.2264E+00
      1.400  0.7212E-01  0.2317E+00
      1.473  0.6553E-01  0.2365E+00
      1.546  0.6611E-01  0.2413E+00
      1.619  0.7026E-01  0.2465E+00
      1.692  0.6176E-01  0.2510E+00
      1.765  0.5678E-01  0.2551E+00
      1.838  0.6369E-01  0.2598E+00
      1.911  0.4682E-01  0.2632E+00
      1.984  0.5007E-01  0.2668E+00
      2.057  0.4860E-01  0.2704E+00
      2.130  0.3991E-01  0.2733E+00
      2.203  0.4785E-01  0.2768E+00
      2.276  0.6647E-01  0.2817E+00
      2.350  0.5790E-01  0.2859E+00
      2.423  0.4016E-01  0.2888E+00
      2.496  0.4038E-01  0.2918E+00
      2.569  0.4619E-01  0.2951E+00
      2.642  0.6498E-01  0.2999E+00
      2.715  0.7104E-01  0.3051E+00
      2.788  0.6230E-01  0.3096E+00
      2.861  0.5831E-01  0.3139E+00
      2.934  0.6654E-01  0.3187E+00
      3.007  0.6397E-01  0.3234E+00
      3.080  0.5630E-01  0.3275E+00
      3.153  0.5747E-01  0.3317E+00
      3.226  0.6857E-01  0.3367E+00
      3.299  0.6562E-01  0.3415E+00
      3.372  0.5037E-01  0.3452E+00
      3.445  0.5726E-01  0.3494E+00
      3.518  0.6062E-01  0.3538E+00
      3.591  0.5704E-01  0.3580E+00
      3.664  0.6041E-01  0.3624E+00
      3.737  0.5854E-01  0.3667E+00
      3.810  0.6994E-01  0.3718E+00
      3.883  0.6707E-01  0.3767E+00
      3.956  0.7141E-01  0.3819E+00
      4.029  0.6547E-01  0.3867E+00
      4.102  0.6800E-01  0.3916E+00
      4.175  0.7579E-01  0.3972E+00
      4.248  0.6610E-01  0.4020E+00
      4.321  0.7015E-01  0.4071E+00
      4.394  0.6687E-01  0.4120E+00
      4.468  0.6327E-01  0.4166E+00
      4.541  0.7457E-01  0.4221E+00
      4.614  0.7004E-01  0.4272E+00
      4.687  0.7478E-01  0.4326E+00
      4.760  0.7708E-01  0.4383E+00
      4.833  0.8099E-01  0.4442E+00
      4.906  0.6619E-01  0.4490E+00
      4.979  0.8406E-01  0.4552E+00
      5.052  0.8461E-01  0.4613E+00
      5.125  0.7086E-01  0.4665E+00
      5.198  0.6089E-01  0.4710E+00
      5.271  0.7017E-01  0.4761E+00
      5.344  0.8114E-01  0.4820E+00
      5.417  0.8579E-01  0.4883E+00
      5.490  0.7584E-01  0.4938E+00
      5.563  0.6773E-01  0.4988E+00
      5.636  0.7777E-01  0.5044E+00
      5.709  0.8764E-01  0.5108E+00
      5.782  0.8359E-01  0.5170E+00
      5.855  0.8248E-01  0.5230E+00
      5.928  0.8124E-01  0.5289E+00
      6.001  0.8098E-01  0.5348E+00
      6.074  0.8582E-01  0.5411E+00
      6.147  0.7919E-01  0.5469E+00
      6.220  0.7542E-01  0.5524E+00
      6.293  0.8245E-01  0.5584E+00
      6.366  0.1057E+00  0.5661E+00
      6.439  0.9039E-01  0.5727E+00
      6.512  0.6592E-01  0.5775E+00
      6.585  0.8339E-01  0.5836E+00
      6.659  0.9742E-01  0.5907E+00
      6.732  0.1120E+00  0.5989E+00
      6.805  0.9294E-01  0.6057E+00
      6.878  0.8702E-01  0.6121E+00
      6.951  0.1007E+00  0.6194E+00
      7.024  0.1043E+00  0.6270E+00
      7.097  0.9710E-01  0.6341E+00
      7.170  0.1007E+00  0.6415E+00
      7.243  0.1054E+00  0.6492E+00
      7.316  0.1059E+00  0.6569E+00
      7.389  0.8916E-01  0.6634E+00
      7.462  0.9916E-01  0.6707E+00
      7.535  0.1017E+00  0.6781E+00
      7.608  0.9589E-01  0.6851E+00
      7.681  0.9135E-01  0.6918E+00
      7.754  0.9126E-01  0.6984E+00
      7.827  0.1044E+00  0.7061E+00
      7.900  0.8745E-01  0.7124E+00
      7.973  0.8717E-01  0.7188E+00
      8.046  0.8048E-01  0.7247E+00
      8.119  0.5529E-01  0.7287E+00
      8.192  0.6829E-01  0.7337E+00
      8.265  0.8036E-01  0.7396E+00
      8.338  0.6303E-01  0.7442E+00
      8.411  0.6593E-01  0.7490E+00
      8.484  0.8603E-01  0.7553E+00
      8.557  0.8403E-01  0.7614E+00
      8.630  0.7950E-01  0.7672E+00
      8.703  0.6583E-01  0.7720E+00
      8.777  0.5688E-01  0.7762E+00
      8.850  0.6659E-01  0.7811E+00
      8.923  0.9165E-01  0.7877E+00
      8.996  0.8681E-01  0.7941E+00
      9.069  0.5891E-01  0.7984E+00
      9.142  0.4791E-01  0.8019E+00
      9.215  0.6391E-01  0.8066E+00
      9.288  0.7547E-01  0.8121E+00
      9.361  0.6895E-01  0.8171E+00
      9.434  0.6996E-01  0.8222E+00
      9.507  0.7444E-01  0.8277E+00
      9.580  0.7158E-01  0.8329E+00
      9.653  0.6435E-01  0.8376E+00
      9.726  0.4454E-01  0.8408E+00
      9.799  0.6471E-01  0.8456E+00
      9.872  0.5986E-01  0.8499E+00
      9.945  0.7275E-01  0.8552E+00
     10.018  0.8583E-01  0.8615E+00
     10.091  0.8909E-01  0.8680E+00
     10.164  0.8444E-01  0.8742E+00
     10.237  0.8131E-01  0.8801E+00
     10.310  0.8968E-01  0.8867E+00
     10.383  0.9861E-01  0.8939E+00
     10.456  0.8604E-01  0.9002E+00
     10.529  0.7708E-01  0.9058E+00
     10.602  0.6759E-01  0.9107E+00
     10.675  0.7071E-01  0.9159E+00
     10.748  0.6933E-01  0.9210E+00
     10.821  0.7781E-01  0.9266E+00
     10.894  0.9079E-01  0.9333E+00
     10.968  0.8434E-01  0.9394E+00
     11.041  0.7860E-01  0.9452E+00
     11.114  0.6840E-01  0.9502E+00
     11.187  0.7990E-01  0.9560E+00
     11.260  0.1002E+00  0.9633E+00
     11.333  0.9404E-01  0.9702E+00
     11.406  0.8441E-01  0.9763E+00
     11.479  0.9146E-01  0.9830E+00
     11.552  0.1224E+00  0.9920E+00
     11.625  0.9530E-01  0.9989E+00
     11.698  0.9159E-01  0.1006E+01
     11.771  0.1055E+00  0.1013E+01
     11.844  0.8795E-01  0.1020E+01
     11.917  0.7790E-01  0.1025E+01
     11.990  0.9328E-01  0.1032E+01
     12.063  0.1036E+00  0.1040E+01
     12.136  0.9499E-01  0.1047E+01
     12.209  0.9508E-01  0.1054E+01
     12.282  0.8573E-01  0.1060E+01
     12.355  0.9351E-01  0.1067E+01
     12.428  0.8566E-01  0.1073E+01
     12.501  0.8727E-01  0.1079E+01
     12.574  0.1123E+00  0.1088E+01
     12.647  0.9517E-01  0.1095E+01
     12.720  0.9421E-01  0.1101E+01
     12.793  0.1041E+00  0.1109E+01
     12.866  0.1053E+00  0.1117E+01
     12.939  0.1093E+00  0.1125E+01
     13.012  0.9476E-01  0.1132E+01
     13.085  0.6731E-01  0.1137E+01
     13.159  0.7397E-01  0.1142E+01
     13.232  0.9392E-01  0.1149E+01
     13.305  0.9204E-01  0.1156E+01
     13.378  0.6663E-01  0.1160E+01
     13.451  0.5783E-01  0.1165E+01
     13.524  0.5571E-01  0.1169E+01
     13.597  0.5479E-01  0.1173E+01
     13.670  0.4961E-01  0.1176E+01
     13.743  0.5467E-01  0.1180E+01
     13.816  0.4915E-01  0.1184E+01
     13.889  0.3146E-01  0.1186E+01
     13.962  0.2378E-01  0.1188E+01
     14.035  0.2812E-01  0.1190E+01
     14.108  0.2066E-01  0.1192E+01
     14.181  0.2665E-01  0.1193E+01
     14.254  0.2945E-01  0.1196E+01
     14.327  0.1279E-01  0.1197E+01
     14.400  0.8698E-02  0.1197E+01
     14.473  0.7197E-02  0.1198E+01
     14.546  0.2036E-02  0.1198E+01
     14.619  0.1619E-02  0.1198E+01
     14.692  0.3675E-02  0.1198E+01
     14.765  0.1637E-02  0.1198E+01
     14.838  0.4514E-04  0.1198E+01
     14.911  0.4688E-03  0.1198E+01
     14.984  0.3885E-02  0.1199E+01
     15.057  0.3973E-02  0.1199E+01
     15.130  0.2951E-02  0.1199E+01
     15.203  0.4806E-02  0.1200E+01
     15.277  0.4376E-02  0.1200E+01
     15.350  0.1700E-02  0.1200E+01
     15.423  0.1823E-03  0.1200E+01
     15.496  0.6895E-06  0.1200E+01
     15.569  0.4900E-10  0.1200E+01
     15.642  0.5553E-16  0.1200E+01
     15.715  0.0000E+00  0.1200E+01
     15.788  0.0000E+00  0.1200E+01
     15.861  0.0000E+00  0.1200E+01
     15.934  0.0000E+00  0.1200E+01
     16.007  0.0000E+00  0.1200E+01
     16.080  0.0000E+00  0.1200E+01
     16.153  0.0000E+00  0.1200E+01
     16.226  0.0000E+00  0.1200E+01
     16.299  0.0000E+00  0.1200E+01
