    8    8   40    1
  0.1530648E+02  0.5259579E-09  0.5259579E-09  0.5360681E-09  0.5000000E-16
  1.000000000000000E-004
  CAR 
 matgen-relax                            
     32    724     24
 
  0.3742002E-15  0.3742002E-15  0.3742002E-15  0.6944444E-03
    1       -4.615240   1.000000
    2        0.297640   1.000000
    3        0.301517   1.000000
    4        1.448868   1.000000
    5        1.915556   1.000000
    6        2.167616   1.000000
    7        2.446175   1.000000
    8        3.636640   1.000000
    9        3.945722   1.000000
   10        6.226147   1.000000
   11        6.363018   1.000000
   12        6.578009   1.000000
   13        6.714288   1.000000
   14        6.912001   1.000000
   15        7.097961   1.000000
   16        7.156544   1.000000
   17        7.190278   1.000000
   18        7.407379   1.000000
   19        7.475741   1.000000
   20       10.462983   0.000000
   21       10.922788   0.000000
   22       13.986644   0.000000
   23       14.232659   0.000000
   24       15.062487   0.000000
 
  0.8333333E-01  0.3674678E-15  0.3742002E-15  0.1388889E-02
    1       -4.562606   1.000000
    2        0.345315   1.000000
    3        0.352107   1.000000
    4        1.269016   1.000000
    5        1.380917   1.000000
    6        1.970743   1.000000
    7        2.720276   1.000000
    8        3.956257   1.000000
    9        4.532443   1.000000
   10        6.040236   1.000000
   11        6.073016   1.000000
   12        6.088516   1.000000
   13        6.331364   1.000000
   14        6.544569   1.000000
   15        6.625079   1.000000
   16        7.530607   1.000000
   17        7.642872   1.000000
   18        7.954427   1.000000
   19        8.275813   1.000000
   20       10.749770   0.000000
   21       11.207626   0.000000
   22       13.567906   0.000000
   23       14.033455   0.000000
   24       15.159471   0.000000
 
  0.1666667E+00  0.3879910E-15  0.3742002E-15  0.1388889E-02
    1       -4.404836   1.000000
    2        0.385968   1.000000
    3        0.503687   1.000000
    4        0.580528   1.000000
    5        0.973195   1.000000
    6        1.570773   1.000000
    7        3.289462   1.000000
    8        4.657017   1.000000
    9        5.126801   1.000000
   10        5.271335   1.000000
   11        5.542154   1.000000
   12        5.956955   1.000000
   13        5.997912   1.000000
   14        6.187174   1.000000
   15        6.361029   1.000000
   16        8.143528   1.000000
   17        8.170558   1.000000
   18        8.903140   1.000000
   19        9.218615   0.000479
   20       11.523457   0.000000
   21       11.970609   0.000000
   22       12.380964   0.000000
   23       14.111263   0.000000
   24       14.174489   0.000000
 
  0.2500000E+00  0.3876974E-15  0.3742002E-15  0.1388889E-02
    1       -4.142366   1.000000
    2       -0.460885   1.000000
    3        0.726132   1.000000
    4        0.755653   1.000000
    5        0.757464   1.000000
    6        1.195902   1.000000
    7        3.856127   1.000000
    8        4.259668   1.000000
    9        4.570033   1.000000
   10        5.522489   1.000000
   11        5.543012   1.000000
   12        5.736411   1.000000
   13        5.890179   1.000000
   14        6.063762   1.000000
   15        6.988368   1.000000
   16        8.818572   1.000000
   17        8.864682   1.000000
   18        9.851893   0.000000
   19       10.158166   0.000000
   20       11.215668   0.000000
   21       12.614338   0.000000
   22       12.717566   0.000000
   23       13.039325   0.000000
   24       14.413915   0.000000
 
  0.3333333E+00  0.4151595E-15  0.3742002E-15  0.1388889E-02
    1       -3.775966   1.000000
    2       -1.306307   1.000000
    3        0.563222   1.000000
    4        0.847112   1.000000
    5        1.106956   1.000000
    6        1.146428   1.000000
    7        3.450039   1.000000
    8        3.458703   1.000000
    9        5.003649   1.000000
   10        5.395419   1.000000
   11        5.565194   1.000000
   12        5.639772   1.000000
   13        5.803089   1.000000
   14        6.511059   1.000000
   15        7.985489   1.000000
   16        9.482341   0.000000
   17        9.662365   0.000000
   18       10.519025   0.000000
   19       10.765049   0.000000
   20       11.040062   0.000000
   21       11.377529   0.000000
   22       13.756714   0.000000
   23       14.013498   0.000000
   24       14.447527   0.000000
 
  0.4166667E+00  0.4148659E-15  0.3742002E-15  0.1388889E-02
    1       -3.306810   1.000000
    2       -2.068266   1.000000
    3        0.493914   1.000000
    4        0.643251   1.000000
    5        1.555953   1.000000
    6        1.580308   1.000000
    7        2.736229   1.000000
    8        2.755217   1.000000
    9        5.327513   1.000000
   10        5.445964   1.000000
   11        5.487910   1.000000
   12        5.611695   1.000000
   13        5.901403   1.000000
   14        7.591970   1.000000
   15        7.771774   1.000000
   16       10.010118   0.000000
   17       10.442704   0.000000
   18       10.497622   0.000000
   19       10.942273   0.000000
   20       11.421320   0.000000
   21       11.746582   0.000000
   22       13.358120   0.000000
   23       13.671846   0.000000
   24       13.803041   0.000000
 
  0.5000000E+00  0.4145724E-15  0.3742002E-15  0.6944444E-03
    1       -2.736664   1.000000
    2       -2.736664   1.000000
    3        0.520895   1.000000
    4        0.520895   1.000000
    5        2.100227   1.000000
    6        2.100227   1.000000
    7        2.123017   1.000000
    8        2.123017   1.000000
    9        5.345293   1.000000
   10        5.345293   1.000000
   11        5.504368   1.000000
   12        5.504368   1.000000
   13        6.864307   1.000000
   14        6.864307   1.000000
   15        8.763157   1.000000
   16        8.763157   1.000000
   17       11.244501   0.000000
   18       11.244501   0.000000
   19       11.441894   0.000000
   20       11.441894   0.000000
   21       12.079972   0.000000
   22       12.079972   0.000000
   23       13.967789   0.000000
   24       13.967789   0.000000
 
  0.3675325E-15  0.8333333E-01  0.3742002E-15  0.1388889E-02
    1       -4.562606   1.000000
    2        0.345315   1.000000
    3        0.352107   1.000000
    4        1.269016   1.000000
    5        1.380917   1.000000
    6        1.970743   1.000000
    7        2.720276   1.000000
    8        3.956257   1.000000
    9        4.532443   1.000000
   10        6.040236   1.000000
   11        6.073016   1.000000
   12        6.088516   1.000000
   13        6.331364   1.000000
   14        6.544569   1.000000
   15        6.625079   1.000000
   16        7.530607   1.000000
   17        7.642872   1.000000
   18        7.954427   1.000000
   19        8.275813   1.000000
   20       10.749770   0.000000
   21       11.207626   0.000000
   22       13.567906   0.000000
   23       14.033455   0.000000
   24       15.159363   0.000000
 
  0.8333333E-01  0.8333333E-01  0.3742002E-15  0.1388889E-02
    1       -4.450856   1.000000
    2        0.431764   1.000000
    3        0.462511   1.000000
    4        0.868404   1.000000
    5        1.109691   1.000000
    6        1.610231   1.000000
    7        2.587672   1.000000
    8        4.979160   1.000000
    9        5.264663   1.000000
   10        5.319344   1.000000
   11        5.627375   1.000000
   12        5.759626   1.000000
   13        6.111461   1.000000
   14        6.377520   1.000000
   15        6.722943   1.000000
   16        7.337448   1.000000
   17        7.571689   1.000000
   18        8.926109   1.000000
   19        9.262767   0.000003
   20       11.376270   0.000000
   21       11.845655   0.000000
   22       13.474014   0.000000
   23       14.125495   0.000000
   24       14.135514   0.000000
 
  0.1666667E+00  0.8333333E-01  0.3742002E-15  0.1388889E-02
    1       -4.234280   1.000000
    2       -0.040087   1.000000
    3        0.553997   1.000000
    4        0.673608   1.000000
    5        0.721298   1.000000
    6        1.587959   1.000000
    7        2.993036   1.000000
    8        4.528701   1.000000
    9        4.793611   1.000000
   10        5.366263   1.000000
   11        5.647845   1.000000
   12        5.889025   1.000000
   13        6.226194   1.000000
   14        6.585407   1.000000
   15        6.622708   1.000000
   16        7.819244   1.000000
   17        7.969866   1.000000
   18        9.939479   0.000000
   19       10.286870   0.000000
   20       12.325589   0.000000
   21       12.454070   0.000000
   22       12.697242   0.000000
   23       12.809119   0.000000
   24       14.008105   0.000000
 
  0.2500000E+00  0.8333333E-01  0.3742002E-15  0.1388889E-02
    1       -3.913547   1.000000
    2       -0.908380   1.000000
    3        0.205921   1.000000
    4        0.984691   1.000000
    5        1.001956   1.000000
    6        1.447690   1.000000
    7        3.503379   1.000000
    8        3.748664   1.000000
    9        4.191116   1.000000
   10        5.048485   1.000000
   11        5.274249   1.000000
   12        6.202946   1.000000
   13        6.435598   1.000000
   14        6.840230   1.000000
   15        7.727547   1.000000
   16        8.562120   1.000000
   17        8.666199   1.000000
   18       10.936539   0.000000
   19       11.221810   0.000000
   20       11.334087   0.000000
   21       11.345141   0.000000
   22       13.509009   0.000000
   23       13.981192   0.000000
   24       14.156327   0.000000
 
  0.3333333E+00  0.8333333E-01  0.3742002E-15  0.1388889E-02
    1       -3.489724   1.000000
    2       -1.708952   1.000000
    3       -0.060582   1.000000
    4        1.355844   1.000000
    5        1.394573   1.000000
    6        1.407328   1.000000
    7        3.019410   1.000000
    8        3.053132   1.000000
    9        4.729503   1.000000
   10        4.837478   1.000000
   11        4.998599   1.000000
   12        6.127526   1.000000
   13        6.317472   1.000000
   14        7.863061   1.000000
   15        8.446018   1.000000
   16        9.388725   0.000000
   17        9.594578   0.000000
   18        9.891154   0.000000
   19       10.785874   0.000000
   20       11.820988   0.000000
   21       12.180480   0.000000
   22       13.779754   0.000000
   23       14.365576   0.000000
   24       14.514227   0.000000
 
  0.4166667E+00  0.8333333E-01  0.3742002E-15  0.1388889E-02
    1       -2.964436   1.000000
    2       -2.419563   1.000000
    3       -0.230204   1.000000
    4        1.345819   1.000000
    5        1.901425   1.000000
    6        1.912042   1.000000
    7        2.362107   1.000000
    8        2.409191   1.000000
    9        4.648865   1.000000
   10        4.822736   1.000000
   11        5.701501   1.000000
   12        6.113451   1.000000
   13        6.283903   1.000000
   14        8.000971   1.000000
   15        8.590146   1.000000
   16        8.976882   0.999796
   17       10.219585   0.000000
   18       10.506714   0.000000
   19       11.570045   0.000000
   20       12.165849   0.000000
   21       12.312109   0.000000
   22       12.732207   0.000000
   23       13.744730   0.000000
   24       13.811115   0.000000
 
  0.5000000E+00  0.8333333E-01  0.3742002E-15  0.1388889E-02
    1       -3.033466   1.000000
    2       -2.340200   1.000000
    3       -0.300684   1.000000
    4        1.418637   1.000000
    5        1.788433   1.000000
    6        1.841473   1.000000
    7        2.502552   1.000000
    8        2.509996   1.000000
    9        4.588087   1.000000
   10        4.747134   1.000000
   11        6.173307   1.000000
   12        6.333922   1.000000
   13        6.703169   1.000000
   14        7.109030   1.000000
   15        7.369366   1.000000
   16       10.142323   0.000000
   17       10.793194   0.000000
   18       11.089444   0.000000
   19       11.151479   0.000000
   20       11.640193   0.000000
   21       11.898908   0.000000
   22       12.904034   0.000000
   23       13.019737   0.000000
   24       13.089023   0.000000
 
 -0.4166667E+00  0.8333333E-01  0.3742002E-15  0.1388889E-02
    1       -3.547259   1.000000
    2       -1.621279   1.000000
    3       -0.271208   1.000000
    4        1.305252   1.000000
    5        1.309898   1.000000
    6        1.636908   1.000000
    7        3.191665   1.000000
    8        3.193919   1.000000
    9        4.619998   1.000000
   10        4.771767   1.000000
   11        6.177348   1.000000
   12        6.237955   1.000000
   13        6.316505   1.000000
   14        6.458691   1.000000
   15        7.573815   1.000000
   16        9.831403   0.000000
   17       10.524727   0.000000
   18       10.782769   0.000000
   19       10.835834   0.000000
   20       11.085865   0.000000
   21       11.474016   0.000000
   22       13.222382   0.000000
   23       13.242849   0.000000
   24       14.286619   0.000000
 
 -0.3333333E+00  0.8333333E-01  0.3742002E-15  0.1388889E-02
    1       -3.958867   1.000000
    2       -0.816211   1.000000
    3       -0.141998   1.000000
    4        0.916820   1.000000
    5        0.933657   1.000000
    6        1.883740   1.000000
    7        3.923625   1.000000
    8        3.969069   1.000000
    9        4.743461   1.000000
   10        4.896178   1.000000
   11        5.207288   1.000000
   12        5.353979   1.000000
   13        6.494658   1.000000
   14        6.637379   1.000000
   15        7.416890   1.000000
   16        9.441327   0.000000
   17        9.731835   0.000000
   18       10.000911   0.000000
   19       10.022644   0.000000
   20       10.576610   0.000000
   21       12.704336   0.000000
   22       13.069478   0.000000
   23       13.343180   0.000000
   24       14.403041   0.000000
 
 -0.2500000E+00  0.8333333E-01  0.3742002E-15  0.1388889E-02
    1       -4.266930   1.000000
    2        0.049835   1.000000
    3        0.085476   1.000000
    4        0.625858   1.000000
    5        0.649989   1.000000
    6        2.215279   1.000000
    7        4.278563   1.000000
    8        4.292380   1.000000
    9        4.816223   1.000000
   10        4.955241   1.000000
   11        5.043999   1.000000
   12        5.119314   1.000000
   13        6.293775   1.000000
   14        6.703397   1.000000
   15        6.823410   1.000000
   16        8.877460   1.000000
   17        9.124879   0.257444
   18        9.150069   0.086328
   19        9.265220   0.000002
   20       11.174613   0.000000
   21       11.910732   0.000000
   22       12.312282   0.000000
   23       14.020533   0.000000
   24       14.287141   0.000000
 
 -0.1666667E+00  0.8333333E-01  0.3742002E-15  0.1388889E-02
    1       -4.470552   1.000000
    2        0.407413   1.000000
    3        0.425242   1.000000
    4        0.434122   1.000000
    5        0.959245   1.000000
    6        2.560079   1.000000
    7        3.563275   1.000000
    8        3.720463   1.000000
    9        5.006534   1.000000
   10        5.386717   1.000000
   11        5.438943   1.000000
   12        5.704395   1.000000
   13        5.735339   1.000000
   14        6.893303   1.000000
   15        6.919721   1.000000
   16        8.086986   1.000000
   17        8.352095   1.000000
   18        8.547142   1.000000
   19        8.586593   1.000000
   20       11.008087   0.000000
   21       11.442030   0.000000
   22       12.282576   0.000000
   23       14.110080   0.000000
   24       14.951555   0.000000
 
 -0.8333333E-01  0.8333333E-01  0.3742002E-15  0.1388889E-02
    1       -4.569192   1.000000
    2        0.339932   1.000000
    3        0.342688   1.000000
    4        0.813697   1.000000
    5        1.537030   1.000000
    6        2.626255   1.000000
    7        3.154617   1.000000
    8        3.307150   1.000000
    9        4.350661   1.000000
   10        5.685223   1.000000
   11        5.849657   1.000000
   12        6.208770   1.000000
   13        6.394368   1.000000
   14        6.877840   1.000000
   15        7.111463   1.000000
   16        7.500624   1.000000
   17        7.720366   1.000000
   18        8.000639   1.000000
   19        8.022665   1.000000
   20       10.588160   0.000000
   21       11.038746   0.000000
   22       13.196208   0.000000
   23       14.025214   0.000000
   24       15.254383   0.000000
 
  0.3742425E-15  0.1666667E+00  0.3742002E-15  0.1388889E-02
    1       -4.404836   1.000000
    2        0.385968   1.000000
    3        0.503687   1.000000
    4        0.580528   1.000000
    5        0.973195   1.000000
    6        1.570773   1.000000
    7        3.289462   1.000000
    8        4.657017   1.000000
    9        5.126801   1.000000
   10        5.271335   1.000000
   11        5.542154   1.000000
   12        5.956955   1.000000
   13        5.997912   1.000000
   14        6.187174   1.000000
   15        6.361029   1.000000
   16        8.143528   1.000000
   17        8.170558   1.000000
   18        8.903140   1.000000
   19        9.218615   0.000479
   20       11.523457   0.000000
   21       11.970609   0.000000
   22       12.380964   0.000000
   23       14.111263   0.000000
   24       14.174489   0.000000
 
  0.8333333E-01  0.1666667E+00  0.3742002E-15  0.1388889E-02
    1       -4.234280   1.000000
    2       -0.040087   1.000000
    3        0.553997   1.000000
    4        0.673608   1.000000
    5        0.721298   1.000000
    6        1.587959   1.000000
    7        2.993036   1.000000
    8        4.528701   1.000000
    9        4.793611   1.000000
   10        5.366263   1.000000
   11        5.647845   1.000000
   12        5.889025   1.000000
   13        6.226194   1.000000
   14        6.585407   1.000000
   15        6.622708   1.000000
   16        7.819244   1.000000
   17        7.969866   1.000000
   18        9.939479   0.000000
   19       10.286870   0.000000
   20       12.325589   0.000000
   21       12.454070   0.000000
   22       12.697242   0.000000
   23       12.809119   0.000000
   24       14.008105   0.000000
 
  0.1666667E+00  0.1666667E+00  0.3742002E-15  0.1388889E-02
    1       -3.959457   1.000000
    2       -0.539760   1.000000
    3       -0.247385   1.000000
    4        0.943504   1.000000
    5        0.956808   1.000000
    6        2.089932   1.000000
    7        2.970516   1.000000
    8        3.909870   1.000000
    9        4.283687   1.000000
   10        4.689659   1.000000
   11        5.032799   1.000000
   12        6.715006   1.000000
   13        7.146340   1.000000
   14        7.226665   1.000000
   15        7.256195   1.000000
   16        7.774461   1.000000
   17        8.175228   1.000000
   18       11.002315   0.000000
   19       11.237063   0.000000
   20       11.383097   0.000000
   21       12.385283   0.000000
   22       12.979625   0.000000
   23       13.367337   0.000000
   24       13.881592   0.000000
 
  0.2500000E+00  0.1666667E+00  0.3742002E-15  0.1388889E-02
    1       -3.581343   1.000000
    2       -1.278710   1.000000
    3       -0.664480   1.000000
    4        1.312484   1.000000
    5        1.320574   1.000000
    6        2.213105   1.000000
    7        3.202828   1.000000
    8        3.269905   1.000000
    9        3.948336   1.000000
   10        4.296439   1.000000
   11        4.582136   1.000000
   12        6.882472   1.000000
   13        7.184289   1.000000
   14        8.026561   1.000000
   15        8.356129   1.000000
   16        8.379341   1.000000
   17        9.001586   0.997716
   18        9.826673   0.000000
   19       11.574673   0.000000
   20       12.020593   0.000000
   21       12.426756   0.000000
   22       12.984503   0.000000
   23       14.037828   0.000000
   24       14.631618   0.000000
 
  0.3333333E+00  0.1666667E+00  0.3742002E-15  0.1388889E-02
    1       -3.101468   1.000000
    2       -2.018392   1.000000
    3       -0.893717   1.000000
    4        1.779064   1.000000
    5        1.783814   1.000000
    6        2.210063   1.000000
    7        2.643468   1.000000
    8        2.739338   1.000000
    9        4.063046   1.000000
   10        4.288047   1.000000
   11        4.627872   1.000000
   12        6.902618   1.000000
   13        7.129698   1.000000
   14        8.481295   1.000000
   15        8.657905   1.000000
   16        9.204358   0.001870
   17        9.221625   0.000352
   18        9.895712   0.000000
   19       11.387862   0.000000
   20       12.807728   0.000000
   21       12.942264   0.000000
   22       13.259760   0.000000
   23       13.308006   0.000000
   24       13.615709   0.000000
 
  0.4166667E+00  0.1666667E+00  0.3742002E-15  0.1388889E-02
    1       -2.672126   1.000000
    2       -2.522211   1.000000
    3       -1.012790   1.000000
    4        2.067758   1.000000
    5        2.096337   1.000000
    6        2.323365   1.000000
    7        2.340907   1.000000
    8        2.341939   1.000000
    9        3.949934   1.000000
   10        4.126772   1.000000
   11        5.598313   1.000000
   12        6.939111   1.000000
   13        7.128909   1.000000
   14        7.214816   1.000000
   15        8.281880   1.000000
   16        9.977095   0.000000
   17       10.061753   0.000000
   18       10.679352   0.000000
   19       11.693532   0.000000
   20       12.498926   0.000000
   21       12.640926   0.000000
   22       12.668276   0.000000
   23       12.754880   0.000000
   24       13.042268   0.000000
 
  0.5000000E+00  0.1666667E+00  0.3742002E-15  0.1388889E-02
    1       -3.228790   1.000000
    2       -1.847654   1.000000
    3       -1.028190   1.000000
    4        1.565389   1.000000
    5        1.611861   1.000000
    6        2.423210   1.000000
    7        2.988672   1.000000
    8        2.994372   1.000000
    9        3.939092   1.000000
   10        4.083127   1.000000
   11        6.037368   1.000000
   12        6.622100   1.000000
   13        7.018305   1.000000
   14        7.183917   1.000000
   15        7.435581   1.000000
   16       10.206222   0.000000
   17       10.316847   0.000000
   18       10.492609   0.000000
   19       11.506420   0.000000
   20       12.051492   0.000000
   21       12.237432   0.000000
   22       12.360217   0.000000
   23       12.427551   0.000000
   24       13.883404   0.000000
 
 -0.4166667E+00  0.1666667E+00  0.3742002E-15  0.1388889E-02
    1       -3.684622   1.000000
    2       -1.085857   1.000000
    3       -0.941085   1.000000
    4        1.148515   1.000000
    5        1.186922   1.000000
    6        2.633390   1.000000
    7        3.710568   1.000000
    8        3.733254   1.000000
    9        4.029012   1.000000
   10        4.149259   1.000000
   11        4.960488   1.000000
   12        6.570432   1.000000
   13        7.120782   1.000000
   14        7.260899   1.000000
   15        7.378628   1.000000
   16        9.248053   0.000018
   17        9.648658   0.000000
   18        9.910575   0.000000
   19       11.245616   0.000000
   20       11.440914   0.000000
   21       12.462322   0.000000
   22       12.937096   0.000000
   23       13.193257   0.000000
   24       13.918062   0.000000
 
 -0.3333333E+00  0.1666667E+00  0.3742002E-15  0.1388889E-02
    1       -4.037673   1.000000
    2       -0.752199   1.000000
    3       -0.257479   1.000000
    4        0.823817   1.000000
    5        0.856788   1.000000
    6        2.914050   1.000000
    7        3.997254   1.000000
    8        4.226491   1.000000
    9        4.320863   1.000000
   10        4.458910   1.000000
   11        4.545021   1.000000
   12        5.801744   1.000000
   13        6.843929   1.000000
   14        7.180059   1.000000
   15        7.268243   1.000000
   16        8.967113   0.999931
   17        9.193101   0.004928
   18        9.421698   0.000000
   19       10.468945   0.000000
   20       10.868927   0.000000
   21       12.417187   0.000000
   22       12.765097   0.000000
   23       13.677961   0.000000
   24       13.874467   0.000000
 
 -0.2500000E+00  0.1666667E+00  0.3742002E-15  0.1388889E-02
    1       -4.286767   1.000000
    2       -0.462693   1.000000
    3        0.508931   1.000000
    4        0.595158   1.000000
    5        0.690532   1.000000
    6        3.199372   1.000000
    7        3.238011   1.000000
    8        4.513159   1.000000
    9        4.595008   1.000000
   10        4.761472   1.000000
   11        5.392385   1.000000
   12        5.566759   1.000000
   13        5.732820   1.000000
   14        7.052743   1.000000
   15        7.092347   1.000000
   16        8.478791   1.000000
   17        8.649301   1.000000
   18        9.486753   0.000000
   19        9.757806   0.000000
   20       11.181049   0.000000
   21       11.465949   0.000000
   22       11.871399   0.000000
   23       13.699891   0.000000
   24       14.251185   0.000000
 
 -0.1666667E+00  0.1666667E+00  0.3742002E-15  0.1388889E-02
    1       -4.431180   1.000000
    2       -0.074704   1.000000
    3        0.464387   1.000000
    4        0.464824   1.000000
    5        1.143362   1.000000
    6        2.937947   1.000000
    7        3.243141   1.000000
    8        4.245985   1.000000
    9        4.898452   1.000000
   10        4.942315   1.000000
   11        4.968929   1.000000
   12        5.956702   1.000000
   13        6.018293   1.000000
   14        6.790196   1.000000
   15        6.998812   1.000000
   16        8.123991   1.000000
   17        8.258339   1.000000
   18        9.020307   0.989459
   19        9.127438   0.234647
   20       10.938643   0.000000
   21       11.369762   0.000000
   22       11.944003   0.000000
   23       13.973520   0.000000
   24       14.137788   0.000000
 
 -0.8333333E-01  0.1666667E+00  0.3742002E-15  0.1388889E-02
    1       -4.470552   1.000000
    2        0.407413   1.000000
    3        0.425242   1.000000
    4        0.434122   1.000000
    5        0.959245   1.000000
    6        2.560079   1.000000
    7        3.563275   1.000000
    8        3.720463   1.000000
    9        5.006534   1.000000
   10        5.386717   1.000000
   11        5.438943   1.000000
   12        5.704395   1.000000
   13        5.735339   1.000000
   14        6.893303   1.000000
   15        6.919721   1.000000
   16        8.086986   1.000000
   17        8.352095   1.000000
   18        8.547142   1.000000
   19        8.586593   1.000000
   20       11.008087   0.000000
   21       11.442030   0.000000
   22       12.282576   0.000000
   23       14.110080   0.000000
   24       14.951555   0.000000
 
  0.3601358E-15  0.2500000E+00  0.3742002E-15  0.1388889E-02
    1       -4.142366   1.000000
    2       -0.460885   1.000000
    3        0.726132   1.000000
    4        0.755653   1.000000
    5        0.757464   1.000000
    6        1.195902   1.000000
    7        3.856126   1.000000
    8        4.259668   1.000000
    9        4.570033   1.000000
   10        5.522489   1.000000
   11        5.543012   1.000000
   12        5.736411   1.000000
   13        5.890179   1.000000
   14        6.063762   1.000000
   15        6.988368   1.000000
   16        8.818572   1.000000
   17        8.864682   1.000000
   18        9.851893   0.000000
   19       10.158166   0.000000
   20       11.215667   0.000000
   21       12.614338   0.000000
   22       12.717566   0.000000
   23       13.039325   0.000000
   24       14.413915   0.000000
 
  0.8333333E-01  0.2500000E+00  0.3742002E-15  0.1388889E-02
    1       -3.913547   1.000000
    2       -0.908380   1.000000
    3        0.205921   1.000000
    4        0.984691   1.000000
    5        1.001956   1.000000
    6        1.447690   1.000000
    7        3.503379   1.000000
    8        3.748664   1.000000
    9        4.191116   1.000000
   10        5.048485   1.000000
   11        5.274249   1.000000
   12        6.202947   1.000000
   13        6.435598   1.000000
   14        6.840230   1.000000
   15        7.727547   1.000000
   16        8.562120   1.000000
   17        8.666199   1.000000
   18       10.936539   0.000000
   19       11.221810   0.000000
   20       11.334087   0.000000
   21       11.345141   0.000000
   22       13.509009   0.000000
   23       13.981192   0.000000
   24       14.156327   0.000000
 
  0.1666667E+00  0.2500000E+00  0.3742002E-15  0.1388889E-02
    1       -3.581343   1.000000
    2       -1.278710   1.000000
    3       -0.664480   1.000000
    4        1.312484   1.000000
    5        1.320574   1.000000
    6        2.213105   1.000000
    7        3.202828   1.000000
    8        3.269905   1.000000
    9        3.948335   1.000000
   10        4.296439   1.000000
   11        4.582136   1.000000
   12        6.882472   1.000000
   13        7.184289   1.000000
   14        8.026561   1.000000
   15        8.356129   1.000000
   16        8.379341   1.000000
   17        9.001586   0.997716
   18        9.826673   0.000000
   19       11.574673   0.000000
   20       12.020593   0.000000
   21       12.426756   0.000000
   22       12.984503   0.000000
   23       14.037828   0.000000
   24       14.631618   0.000000
 
  0.2500000E+00  0.2500000E+00  0.3742002E-15  0.1388889E-02
    1       -3.147195   1.000000
    2       -1.644263   1.000000
    3       -1.355559   1.000000
    4        1.737865   1.000000
    5        1.740854   1.000000
    6        2.794270   1.000000
    7        2.849515   1.000000
    8        2.885049   1.000000
    9        3.758771   1.000000
   10        3.989984   1.000000
   11        4.052600   1.000000
   12        7.406113   1.000000
   13        7.790796   1.000000
   14        8.431118   1.000000
   15        8.444365   1.000000
   16        8.483773   1.000000
   17        9.420721   0.000000
   18        9.857426   0.000000
   19       11.797041   0.000000
   20       12.264254   0.000000