       N       E                     dE             d eps       ncg     rms          rms(c)
DAV:   1     0.598825276173E+02    0.59883E+02   -0.12641E+04 34752   0.113E+03
DAV:   2    -0.366443845991E+02   -0.96527E+02   -0.89327E+02 43288   0.156E+02
DAV:   3    -0.410367996284E+02   -0.43924E+01   -0.42209E+01 46432   0.293E+01
DAV:   4    -0.410933477761E+02   -0.56548E-01   -0.56453E-01 41648   0.396E+00
DAV:   5    -0.410941221274E+02   -0.77435E-03   -0.77405E-03 46256   0.402E-01    0.811E+00
DAV:   6    -0.410729360316E+02    0.21186E-01   -0.68885E-03 42752   0.405E-01    0.725E+00
DAV:   7    -0.410354757525E+02    0.37460E-01   -0.26694E-01 43424   0.249E+00    0.926E-01
DAV:   8    -0.410135369995E+02    0.21939E-01   -0.12670E-01 40344   0.186E+00    0.397E-01
DAV:   9    -0.410140035499E+02   -0.46655E-03   -0.97341E-03 42592   0.525E-01    0.382E-01
DAV:  10    -0.410139085683E+02    0.94982E-04   -0.38953E-04 40112   0.943E-02
   1 F= -.41013909E+02 E0= -.41012723E+02  d E =-.410139E+02
       N       E                     dE             d eps       ncg     rms          rms(c)
DAV:   1    -0.410145369710E+02   -0.53342E-03   -0.63124E-04 43400   0.114E-01    0.526E-01
DAV:   2    -0.410142405368E+02    0.29643E-03   -0.75688E-05 23832   0.462E-02    0.475E-01
DAV:   3    -0.410136143834E+02    0.62615E-03   -0.32612E-03 43072   0.257E-01    0.703E-02
DAV:   4    -0.410135310673E+02    0.83316E-04   -0.35436E-04 37320   0.988E-02    0.750E-02
DAV:   5    -0.410135101301E+02    0.20937E-04   -0.61413E-05 21064   0.397E-02    0.195E-02
DAV:   6    -0.410135036076E+02    0.65225E-05   -0.33969E-05 20000   0.262E-02
   2 F= -.41013504E+02 E0= -.41012316E+02  d E =0.404961E-03
       N       E                     dE             d eps       ncg     rms          rms(c)
DAV:   1    -0.410135044161E+02    0.57140E-05   -0.11679E-05 19600   0.183E-02    0.459E-03
DAV:   2    -0.410135042925E+02    0.12362E-06   -0.13078E-06 19336   0.628E-03    0.398E-03
DAV:   3    -0.410135035942E+02    0.69834E-06   -0.53685E-07 19144   0.343E-03    0.214E-03
DAV:   4    -0.410135032355E+02    0.35869E-06   -0.30071E-07 18960   0.244E-03    0.103E-03
DAV:   5    -0.410135031816E+02    0.53874E-07   -0.50050E-08 18920   0.125E-03    0.736E-04
DAV:   6    -0.410135031155E+02    0.66120E-07   -0.10629E-08 18832   0.509E-04
   3 F= -.41013503E+02 E0= -.41012314E+02  d E =0.405453E-03
       N       E                     dE             d eps       ncg     rms          rms(c)
DAV:   1    -0.410135115377E+02   -0.83562E-05   -0.26461E-05 18744   0.241E-02    0.369E-03
DAV:   2    -0.410135115897E+02   -0.52013E-07   -0.21737E-06 18600   0.769E-03    0.345E-03
DAV:   3    -0.410135111931E+02    0.39665E-06   -0.22018E-07 18496   0.293E-03    0.212E-03
DAV:   4    -0.410135108988E+02    0.29427E-06   -0.34036E-07 18360   0.288E-03    0.281E-04
DAV:   5    -0.410135109027E+02   -0.38663E-08   -0.49470E-08 18280   0.125E-03    0.231E-04
DAV:   6    -0.410135108922E+02    0.10501E-07   -0.59260E-09 18208   0.427E-04
   4 F= -.41013511E+02 E0= -.41012321E+02  d E =0.397676E-03
       N       E                     dE             d eps       ncg     rms          rms(c)
DAV:   1    -0.410135188453E+02   -0.79426E-05   -0.10621E-04 22152   0.484E-02    0.733E-03
DAV:   2    -0.410135191001E+02   -0.25486E-06   -0.87019E-06 18320   0.154E-02    0.680E-03
DAV:   3    -0.410135176612E+02    0.14389E-05   -0.88526E-07 18088   0.588E-03    0.411E-03
DAV:   4    -0.410135167607E+02    0.90046E-06   -0.13485E-06 18064   0.574E-03    0.568E-04
DAV:   5    -0.410135167725E+02   -0.11738E-07   -0.19795E-07 18040   0.250E-03    0.476E-04
DAV:   6    -0.410135167527E+02    0.19779E-07   -0.24246E-08 18024   0.864E-04
   5 F= -.41013517E+02 E0= -.41012324E+02  d E =0.391816E-03
       N       E                     dE             d eps       ncg     rms          rms(c)
DAV:   1    -0.410135178193E+02   -0.10468E-05   -0.25852E-05 18024   0.239E-02    0.367E-03
DAV:   2    -0.410135178652E+02   -0.45892E-07   -0.21220E-06 17992   0.757E-03    0.338E-03
DAV:   3    -0.410135174487E+02    0.41652E-06   -0.22428E-07 18032   0.293E-03    0.199E-03
DAV:   4    -0.410135171652E+02    0.28353E-06   -0.32053E-07 18000   0.280E-03    0.302E-04
DAV:   5    -0.410135171665E+02   -0.13520E-08   -0.48267E-08 17984   0.123E-03    0.271E-04
DAV:   6    -0.410135171549E+02    0.11642E-07   -0.62397E-09 17904   0.433E-04
   6 F= -.41013517E+02 E0= -.41012323E+02  d E =0.391413E-03
       N       E                     dE             d eps       ncg     rms          rms(c)
DAV:   1    -0.410135284320E+02   -0.11265E-04   -0.17390E-05 17920   0.215E-02    0.199E-03
DAV:   2    -0.410135286062E+02   -0.17416E-06   -0.19178E-06 17904   0.772E-03    0.155E-03
DAV:   3    -0.410135286074E+02   -0.12078E-08   -0.23110E-07 17872   0.277E-03    0.138E-03
DAV:   4    -0.410135285741E+02    0.33272E-07   -0.82513E-08 17832   0.167E-03    0.599E-04
DAV:   5    -0.410135285798E+02   -0.56784E-08   -0.40340E-08 17856   0.918E-04    0.327E-04
DAV:   6    -0.410135285817E+02   -0.18867E-08   -0.11609E-08 17752   0.614E-04
   7 F= -.41013529E+02 E0= -.41012335E+02  d E =-.114268E-04
       N       E                     dE             d eps       ncg     rms          rms(c)
DAV:   1    -0.410135575069E+02   -0.28927E-04   -0.15889E-04 26320   0.642E-02    0.592E-03
DAV:   2    -0.410135587288E+02   -0.12219E-05   -0.13916E-05 17968   0.207E-02    0.462E-03
DAV:   3    -0.410135586440E+02    0.84849E-07   -0.15454E-06 17720   0.736E-03    0.387E-03
DAV:   4    -0.410135583329E+02    0.31103E-06   -0.83944E-07 17688   0.522E-03    0.121E-03
DAV:   5    -0.410135583628E+02   -0.29853E-07   -0.24475E-07 17664   0.239E-03    0.999E-04
DAV:   6    -0.410135583670E+02   -0.42048E-08   -0.40758E-08 17640   0.122E-03
   8 F= -.41013558E+02 E0= -.41012368E+02  d E =-.412121E-04
       N       E                     dE             d eps       ncg     rms          rms(c)
DAV:   1    -0.410135953937E+02   -0.37031E-04   -0.66708E-04 39136   0.129E-01    0.137E-02
DAV:   2    -0.410135978940E+02   -0.25003E-05   -0.33413E-05 19224   0.311E-02    0.101E-02
DAV:   3    -0.410135967674E+02    0.11266E-05   -0.33141E-06 18064   0.114E-02    0.719E-03
DAV:   4    -0.410135955854E+02    0.11820E-05   -0.22632E-06 17768   0.833E-03    0.263E-03
DAV:   5    -0.410135957571E+02   -0.17177E-06   -0.13496E-06 17672   0.536E-03    0.151E-03
DAV:   6    -0.410135956454E+02    0.11179E-06   -0.32996E-07 17584   0.340E-03
   9 F= -.41013596E+02 E0= -.41012411E+02  d E =-.784905E-04
       N       E                     dE             d eps       ncg     rms          rms(c)
DAV:   1    -0.410135926132E+02    0.31440E-05   -0.26799E-03 37584   0.258E-01    0.274E-02
DAV:   2    -0.410136029364E+02   -0.10323E-04   -0.13876E-04 32976   0.625E-02    0.196E-02
DAV:   3    -0.410135982862E+02    0.46502E-05   -0.98178E-06 19432   0.191E-02    0.147E-02
DAV:   4    -0.410135926097E+02    0.56766E-05   -0.11658E-05 18136   0.184E-02    0.482E-03
DAV:   5    -0.410135928492E+02   -0.23950E-06   -0.46956E-06 17888   0.104E-02    0.282E-03
DAV:   6    -0.410135926352E+02    0.21395E-06   -0.82516E-07 17800   0.553E-03
  10 F= -.41013593E+02 E0= -.41012418E+02  d E =-.754804E-04
       N       E                     dE             d eps       ncg     rms          rms(c)
DAV:   1    -0.410136093317E+02   -0.16483E-04   -0.75698E-04 36560   0.137E-01    0.137E-02
DAV:   2    -0.410136118409E+02   -0.25092E-05   -0.36847E-05 18152   0.328E-02    0.103E-02
DAV:   3    -0.410136103422E+02    0.14987E-05   -0.36364E-06 17680   0.120E-02    0.748E-03
DAV:   4    -0.410136084035E+02    0.19387E-05   -0.27183E-06 17432   0.912E-03    0.275E-03
DAV:   5    -0.410136083306E+02    0.72940E-07   -0.16357E-06 17448   0.579E-03    0.151E-03
DAV:   6    -0.410136081761E+02    0.15444E-06   -0.42144E-07 17416   0.380E-03
  11 F= -.41013608E+02 E0= -.41012428E+02  d E =-.910213E-04
       N       E                     dE             d eps       ncg     rms          rms(c)
DAV:   1    -0.410136330611E+02   -0.24731E-04   -0.16894E-04 26688   0.673E-02    0.769E-03
DAV:   2    -0.410136335912E+02   -0.53010E-06   -0.97421E-06 17656   0.186E-02    0.565E-03
DAV:   3    -0.410136328670E+02    0.72418E-06   -0.12453E-06 17480   0.683E-03    0.360E-03
DAV:   4    -0.410136323052E+02    0.56179E-06   -0.11235E-06 17496   0.534E-03    0.742E-04
DAV:   5    -0.410136323113E+02   -0.60941E-08   -0.19438E-07 17480   0.255E-03    0.660E-04
DAV:   6    -0.410136323015E+02    0.98264E-08   -0.33034E-08 17472   0.102E-03
  12 F= -.41013632E+02 E0= -.41012453E+02  d E =-.241254E-04
       N       E                     dE             d eps       ncg     rms          rms(c)
DAV:   1    -0.410136876609E+02   -0.55350E-04   -0.15748E-03 39296   0.202E-01    0.205E-02
DAV:   2    -0.410136877982E+02   -0.13731E-06   -0.40721E-05 23848   0.361E-02    0.172E-02
DAV:   3    -0.410136776727E+02    0.10126E-04   -0.11259E-05 18752   0.184E-02    0.710E-03
DAV:   4    -0.410136759820E+02    0.16907E-05   -0.52999E-06 18232   0.111E-02    0.217E-03
DAV:   5    -0.410136758722E+02    0.10975E-06   -0.86338E-07 17936   0.572E-03    0.147E-03
DAV:   6    -0.410136758637E+02    0.85156E-08   -0.30571E-07 17840   0.273E-03
  13 F= -.41013676E+02 E0= -.41012497E+02  d E =-.676876E-04
       N       E                     dE             d eps       ncg     rms          rms(c)
DAV:   1    -0.410136769292E+02   -0.10570E-05   -0.63062E-03 38592   0.404E-01    0.407E-02
DAV:   2    -0.410136779511E+02   -0.10219E-05   -0.16468E-04 33008   0.721E-02    0.342E-02
DAV:   3    -0.410136385454E+02    0.39406E-04   -0.41940E-05 21208   0.354E-02    0.145E-02
DAV:   4    -0.410136314294E+02    0.71160E-05   -0.21389E-05 19120   0.222E-02    0.430E-03
DAV:   5    -0.410136311045E+02    0.32491E-06   -0.35427E-06 18536   0.116E-02    0.292E-03
DAV:   6    -0.410136311521E+02   -0.47618E-07   -0.12303E-06 18360   0.553E-03
  14 F= -.41013631E+02 E0= -.41012447E+02  d E =-.229760E-04
       N       E                     dE             d eps       ncg     rms          rms(c)
DAV:   1    -0.410137121322E+02   -0.81028E-04   -0.36794E-03 37888   0.308E-01    0.317E-02
DAV:   2    -0.410137119269E+02    0.20531E-06   -0.95469E-05 29168   0.552E-02    0.267E-02
DAV:   3    -0.410136867765E+02    0.25150E-04   -0.27334E-05 18720   0.284E-02    0.108E-02
DAV:   4    -0.410136827786E+02    0.39979E-05   -0.12799E-05 17880   0.171E-02    0.304E-03
DAV:   5    -0.410136827225E+02    0.56110E-07   -0.19974E-06 17632   0.873E-03    0.207E-03
DAV:   6    -0.410136828056E+02   -0.83147E-07   -0.73853E-07 17560   0.422E-03
  15 F= -.41013683E+02 E0= -.41012504E+02  d E =-.746295E-04
       N       E                     dE             d eps       ncg     rms          rms(c)
DAV:   1    -0.410137091486E+02   -0.26426E-04   -0.31805E-04 32224   0.916E-02    0.808E-03
DAV:   2    -0.410137097723E+02   -0.62368E-06   -0.11298E-05 17616   0.193E-02    0.648E-03
DAV:   3    -0.410137088024E+02    0.96987E-06   -0.15147E-06 17520   0.755E-03    0.374E-03
DAV:   4    -0.410137083834E+02    0.41905E-06   -0.10654E-06 17504   0.532E-03    0.861E-04
DAV:   5    -0.410137084142E+02   -0.30889E-07   -0.23820E-07 17488   0.274E-03    0.571E-04
DAV:   6    -0.410137084297E+02   -0.15484E-07   -0.40900E-08 17496   0.116E-03
  16 F= -.41013708E+02 E0= -.41012528E+02  d E =-.256241E-04
       N       E                     dE             d eps       ncg     rms          rms(c)
DAV:   1    -0.410137345665E+02   -0.26152E-04   -0.11532E-03 37248   0.174E-01    0.166E-02
DAV:   2    -0.410137360028E+02   -0.14363E-05   -0.35037E-05 22088   0.331E-02    0.133E-02
DAV:   3    -0.410137317558E+02    0.42470E-05   -0.51703E-06 18256   0.136E-02    0.756E-03
DAV:   4    -0.410137298769E+02    0.18789E-05   -0.40445E-06 17664   0.101E-02    0.180E-03
DAV:   5    -0.410137299363E+02   -0.59354E-07   -0.87259E-07 17552   0.524E-03    0.104E-03
DAV:   6    -0.410137299522E+02   -0.15978E-07   -0.13954E-07 17560   0.217E-03
  17 F= -.41013730E+02 E0= -.41012547E+02  d E =-.471466E-04
       N       E                     dE             d eps       ncg     rms          rms(c)
DAV:   1    -0.410137301309E+02   -0.19461E-06   -0.92062E-06 17488   0.159E-02    0.198E-03
DAV:   2    -0.410137301969E+02   -0.66004E-07   -0.79272E-07 17448   0.531E-03    0.146E-03
DAV:   3    -0.410137301836E+02    0.13279E-07   -0.93983E-08 17448   0.189E-03    0.100E-03
DAV:   4    -0.410137301862E+02   -0.25816E-08   -0.68881E-08 17424   0.141E-03    0.221E-04
DAV:   5    -0.410137301889E+02   -0.26930E-08   -0.14501E-08 17424   0.659E-04    0.224E-04
DAV:   6    -0.410137301903E+02   -0.13877E-08   -0.26558E-09 17424   0.297E-04
  18 F= -.41013730E+02 E0= -.41012546E+02  d E =-.473846E-04
       N       E                     dE             d eps       ncg     rms          rms(c)
DAV:   1    -0.410137361125E+02   -0.59236E-05   -0.63585E-05 17744   0.401E-02    0.517E-03
DAV:   2    -0.410137363808E+02   -0.26828E-06   -0.46404E-06 17568   0.122E-02    0.403E-03
DAV:   3    -0.410137360644E+02    0.31634E-06   -0.60400E-07 17520   0.462E-03    0.272E-03
DAV:   4    -0.410137358184E+02    0.24603E-06   -0.46128E-07 17456   0.345E-03    0.735E-04
DAV:   5    -0.410137357993E+02    0.19107E-07   -0.95984E-08 17424   0.181E-03    0.612E-04
DAV:   6    -0.410137357826E+02    0.16719E-07   -0.31142E-08 17424   0.915E-04
  19 F= -.41013736E+02 E0= -.41012556E+02  d E =-.559233E-05
       N       E                     dE             d eps       ncg     rms          rms(c)
DAV:   1    -0.410137419547E+02   -0.61554E-05   -0.23495E-04 35280   0.759E-02    0.929E-03
DAV:   2    -0.410137422775E+02   -0.32284E-06   -0.10354E-05 18800   0.181E-02    0.779E-03
DAV:   3    -0.410137406751E+02    0.16024E-05   -0.17499E-06 17720   0.787E-03    0.411E-03
DAV:   4    -0.410137401675E+02    0.50761E-06   -0.10782E-06 17688   0.503E-03    0.133E-03
DAV:   5    -0.410137400580E+02    0.10952E-06   -0.31136E-07 17592   0.327E-03    0.844E-04
DAV:   6    -0.410137400418E+02    0.16151E-07   -0.85603E-08 17520   0.148E-03
  20 F= -.41013740E+02 E0= -.41012568E+02  d E =-.985157E-05
       N       E                     dE             d eps       ncg     rms          rms(c)
DAV:   1    -0.410137400790E+02   -0.21032E-07   -0.13506E-06 17440   0.585E-03    0.875E-04
DAV:   2    -0.410137400805E+02   -0.14606E-08   -0.94015E-08 17376   0.173E-03    0.730E-04
DAV:   3    -0.410137400614E+02    0.19099E-07   -0.12626E-08 17376   0.661E-04    0.500E-04
DAV:   4    -0.410137400313E+02    0.30099E-07   -0.11107E-08 17376   0.535E-04    0.137E-04
DAV:   5    -0.410137400310E+02    0.32196E-09   -0.23782E-09 17376   0.274E-04    0.150E-04
DAV:   6    -0.410137400252E+02    0.57744E-08   -0.75999E-10 17376   0.137E-04
  21 F= -.41013740E+02 E0= -.41012569E+02  d E =-.983492E-05
       N       E                     dE             d eps       ncg     rms          rms(c)
DAV:   1    -0.410137400931E+02   -0.62192E-07   -0.51267E-06 17376   0.114E-02    0.145E-03
DAV:   2    -0.410137401136E+02   -0.20479E-07   -0.37339E-07 17376   0.346E-03    0.113E-03
DAV:   3    -0.410137400873E+02    0.26314E-07   -0.48410E-08 17376   0.130E-03    0.770E-04
DAV:   4    -0.410137400614E+02    0.25902E-07   -0.37643E-08 17376   0.984E-04    0.206E-04
DAV:   5    -0.410137400579E+02    0.35213E-08   -0.76851E-09 17376   0.511E-04    0.180E-04
DAV:   6    -0.410137400535E+02    0.44381E-08   -0.24200E-09 17376   0.256E-04
  22 F= -.41013740E+02 E0= -.41012570E+02  d E =-.986319E-05
       N       E                     dE             d eps       ncg     rms          rms(c)
DAV:   1    -0.410137413893E+02   -0.13315E-05   -0.44697E-05 17376   0.328E-02    0.419E-03
DAV:   2    -0.410137416379E+02   -0.24855E-06   -0.40129E-06 17376   0.110E-02    0.358E-03
DAV:   3    -0.410137413924E+02    0.24552E-06   -0.42001E-07 17376   0.401E-03    0.248E-03
DAV:   4    -0.410137412344E+02    0.15800E-06   -0.53388E-07 17376   0.367E-03    0.361E-04
DAV:   5    -0.410137412395E+02   -0.51180E-08   -0.83296E-08 17376   0.159E-03    0.357E-04
DAV:   6    -0.410137412471E+02   -0.76134E-08   -0.10557E-08 17376   0.581E-04
  23 F= -.41013741E+02 E0= -.41012573E+02  d E =-.119365E-05
