<?xml version="1.0" encoding="ISO-8859-1"?>
<modeling>
 <generator>
  <i name="program" type="string">vasp </i>
  <i name="version" type="string">5.4.1  </i>
  <i name="subversion" type="string">24Jun15 (build Nov 23 2015 09:58:10) complex                          parallel </i>
  <i name="platform" type="string">LinuxIFC </i>
  <i name="date" type="string">2020 11 17 </i>
  <i name="time" type="string">18:01:10 </i>
 </generator>
 <incar>
  <i type="string" name="SYSTEM"> matgen-relax</i>
  <i type="int" name="ISTART">     0</i>
  <i type="string" name="PREC">accurate</i>
  <i type="int" name="IALGO">    48</i>
  <i type="string" name="ALGO"> Normal</i>
  <i type="logical" name="ADDGRID"> T  </i>
  <i type="int" name="ISPIN">     1</i>
  <i name="AMIX">      0.10000000</i>
  <i name="BMIX">      1.20000000</i>
  <i type="int" name="INIWAV">     1</i>
  <i type="int" name="NELM">    60</i>
  <i type="int" name="NELMIN">     6</i>
  <i type="int" name="IBRION">     2</i>
  <i name="EDIFF">      0.00010000</i>
  <i name="EDIFFG">     -0.00100000</i>
  <i type="int" name="NSW">    40</i>
  <i type="int" name="ISIF">     3</i>
  <i type="int" name="ISYM">     0</i>
  <i name="SYMPREC">      0.00000001</i>
  <i type="int" name="NBLOCK">     1</i>
  <i name="ENCUT">    520.00000000</i>
  <i name="POTIM">      0.05000000</i>
  <i type="string" name="LREAL"> Auto</i>
  <i type="int" name="ISMEAR">     0</i>
  <i name="SIGMA">      0.05000000</i>
  <i type="logical" name="LCORR"> T  </i>
  <i type="logical" name="LWAVE"> F  </i>
  <i type="logical" name="LCHARG"> F  </i>
  <v type="int" name="KPOINT_BSE">    -1     0     0     0</v>
  <i type="int" name="NELM">    60</i>
 </incar>
 <kpoints>
  <generation param="Gamma">
   <v type="int" name="divisions">      12       12       10 </v>
   <v name="usershift">      0.00000000       0.00000000       0.00000000 </v>
   <v name="genvec1">      0.08333333       0.00000000       0.00000000 </v>
   <v name="genvec2">     -0.00000000       0.08333333       0.00000000 </v>
   <v name="genvec3">      0.00000000       0.00000000       0.10000000 </v>
   <v name="shift">      0.00000000       0.00000000       0.00000000 </v>
  </generation>
  <varray name="kpointlist" >
   <v>       0.00000000       0.00000000       0.00000000 </v>
   <v>       0.08333333       0.00000000       0.00000000 </v>
   <v>       0.16666667       0.00000000       0.00000000 </v>
   <v>       0.25000000       0.00000000       0.00000000 </v>
   <v>       0.33333333       0.00000000       0.00000000 </v>
   <v>       0.41666667       0.00000000       0.00000000 </v>
   <v>       0.50000000       0.00000000       0.00000000 </v>
   <v>       0.00000000       0.08333333       0.00000000 </v>
   <v>       0.08333333       0.08333333       0.00000000 </v>
   <v>       0.16666667       0.08333333       0.00000000 </v>
   <v>       0.25000000       0.08333333       0.00000000 </v>
   <v>       0.33333333       0.08333333       0.00000000 </v>
   <v>       0.41666667       0.08333333       0.00000000 </v>
   <v>       0.50000000       0.08333333       0.00000000 </v>
   <v>      -0.41666667       0.08333333       0.00000000 </v>
   <v>      -0.33333333       0.08333333       0.00000000 </v>
   <v>      -0.25000000       0.08333333       0.00000000 </v>
   <v>      -0.16666667       0.08333333       0.00000000 </v>
   <v>      -0.08333333       0.08333333       0.00000000 </v>
   <v>       0.00000000       0.16666667       0.00000000 </v>
   <v>       0.08333333       0.16666667       0.00000000 </v>
   <v>       0.16666667       0.16666667       0.00000000 </v>
   <v>       0.25000000       0.16666667       0.00000000 </v>
   <v>       0.33333333       0.16666667       0.00000000 </v>
   <v>       0.41666667       0.16666667       0.00000000 </v>
   <v>       0.50000000       0.16666667       0.00000000 </v>
   <v>      -0.41666667       0.16666667       0.00000000 </v>
   <v>      -0.33333333       0.16666667       0.00000000 </v>
   <v>      -0.25000000       0.16666667       0.00000000 </v>
   <v>      -0.16666667       0.16666667       0.00000000 </v>
   <v>      -0.08333333       0.16666667       0.00000000 </v>
   <v>       0.00000000       0.25000000       0.00000000 </v>
   <v>       0.08333333       0.25000000       0.00000000 </v>
   <v>       0.16666667       0.25000000       0.00000000 </v>
   <v>       0.25000000       0.25000000       0.00000000 </v>
   <v>       0.33333333       0.25000000       0.00000000 </v>
   <v>       0.41666667       0.25000000       0.00000000 </v>
   <v>       0.50000000       0.25000000       0.00000000 </v>
   <v>      -0.41666667       0.25000000       0.00000000 </v>
   <v>      -0.33333333       0.25000000       0.00000000 </v>
   <v>      -0.25000000       0.25000000       0.00000000 </v>
   <v>      -0.16666667       0.25000000       0.00000000 </v>
   <v>      -0.08333333       0.25000000       0.00000000 </v>
   <v>       0.00000000       0.33333333       0.00000000 </v>
   <v>       0.08333333       0.33333333       0.00000000 </v>
   <v>       0.16666667       0.33333333       0.00000000 </v>
   <v>       0.25000000       0.33333333       0.00000000 </v>
   <v>       0.33333333       0.33333333       0.00000000 </v>
   <v>       0.41666667       0.33333333       0.00000000 </v>
   <v>       0.50000000       0.33333333       0.00000000 </v>
   <v>      -0.41666667       0.33333333       0.00000000 </v>
   <v>      -0.33333333       0.33333333       0.00000000 </v>
   <v>      -0.25000000       0.33333333       0.00000000 </v>
   <v>      -0.16666667       0.33333333       0.00000000 </v>
   <v>      -0.08333333       0.33333333       0.00000000 </v>
   <v>       0.00000000       0.41666667       0.00000000 </v>
   <v>       0.08333333       0.41666667       0.00000000 </v>
   <v>       0.16666667       0.41666667       0.00000000 </v>
   <v>       0.25000000       0.41666667       0.00000000 </v>
   <v>       0.33333333       0.41666667       0.00000000 </v>
   <v>       0.41666667       0.41666667       0.00000000 </v>
   <v>       0.50000000       0.41666667       0.00000000 </v>
   <v>      -0.41666667       0.41666667       0.00000000 </v>
   <v>      -0.33333333       0.41666667       0.00000000 </v>
   <v>      -0.25000000       0.41666667       0.00000000 </v>
   <v>      -0.16666667       0.41666667       0.00000000 </v>
   <v>      -0.08333333       0.41666667       0.00000000 </v>
   <v>       0.00000000       0.50000000       0.00000000 </v>
   <v>       0.08333333       0.50000000       0.00000000 </v>
   <v>       0.16666667       0.50000000       0.00000000 </v>
   <v>       0.25000000       0.50000000       0.00000000 </v>
   <v>       0.33333333       0.50000000       0.00000000 </v>
   <v>       0.41666667       0.50000000       0.00000000 </v>
   <v>       0.50000000       0.50000000       0.00000000 </v>
   <v>       0.00000000       0.00000000       0.10000000 </v>
   <v>       0.08333333       0.00000000       0.10000000 </v>
   <v>       0.16666667       0.00000000       0.10000000 </v>
   <v>       0.25000000       0.00000000       0.10000000 </v>
   <v>       0.33333333       0.00000000       0.10000000 </v>
   <v>       0.41666667       0.00000000       0.10000000 </v>
   <v>       0.50000000       0.00000000       0.10000000 </v>
   <v>      -0.41666667       0.00000000       0.10000000 </v>
   <v>      -0.33333333       0.00000000       0.10000000 </v>
   <v>      -0.25000000       0.00000000       0.10000000 </v>
   <v>      -0.16666667       0.00000000       0.10000000 </v>
   <v>      -0.08333333       0.00000000       0.10000000 </v>
   <v>       0.00000000       0.08333333       0.10000000 </v>
   <v>       0.08333333       0.08333333       0.10000000 </v>
   <v>       0.16666667       0.08333333       0.10000000 </v>
   <v>       0.25000000       0.08333333       0.10000000 </v>
   <v>       0.33333333       0.08333333       0.10000000 </v>
   <v>       0.41666667       0.08333333       0.10000000 </v>
   <v>       0.50000000       0.08333333       0.10000000 </v>
   <v>      -0.41666667       0.08333333       0.10000000 </v>
   <v>      -0.33333333       0.08333333       0.10000000 </v>
   <v>      -0.25000000       0.08333333       0.10000000 </v>
   <v>      -0.16666667       0.08333333       0.10000000 </v>
   <v>      -0.08333333       0.08333333       0.10000000 </v>
   <v>       0.00000000       0.16666667       0.10000000 </v>
   <v>       0.08333333       0.16666667       0.10000000 </v>
   <v>       0.16666667       0.16666667       0.10000000 </v>
   <v>       0.25000000       0.16666667       0.10000000 </v>
   <v>       0.33333333       0.16666667       0.10000000 </v>
   <v>       0.41666667       0.16666667       0.10000000 </v>
   <v>       0.50000000       0.16666667       0.10000000 </v>
   <v>      -0.41666667       0.16666667       0.10000000 </v>
   <v>      -0.33333333       0.16666667       0.10000000 </v>
   <v>      -0.25000000       0.16666667       0.10000000 </v>
   <v>      -0.16666667       0.16666667       0.10000000 </v>
   <v>      -0.08333333       0.16666667       0.10000000 </v>
   <v>       0.00000000       0.25000000       0.10000000 </v>
   <v>       0.08333333       0.25000000       0.10000000 </v>
   <v>       0.16666667       0.25000000       0.10000000 </v>
   <v>       0.25000000       0.25000000       0.10000000 </v>
   <v>       0.33333333       0.25000000       0.10000000 </v>
   <v>       0.41666667       0.25000000       0.10000000 </v>
   <v>       0.50000000       0.25000000       0.10000000 </v>
   <v>      -0.41666667       0.25000000       0.10000000 </v>
   <v>      -0.33333333       0.25000000       0.10000000 </v>
   <v>      -0.25000000       0.25000000       0.10000000 </v>
   <v>      -0.16666667       0.25000000       0.10000000 </v>
   <v>      -0.08333333       0.25000000       0.10000000 </v>
   <v>       0.00000000       0.33333333       0.10000000 </v>
   <v>       0.08333333       0.33333333       0.10000000 </v>
   <v>       0.16666667       0.33333333       0.10000000 </v>
   <v>       0.25000000       0.33333333       0.10000000 </v>
   <v>       0.33333333       0.33333333       0.10000000 </v>
   <v>       0.41666667       0.33333333       0.10000000 </v>
   <v>       0.50000000       0.33333333       0.10000000 </v>
   <v>      -0.41666667       0.33333333       0.10000000 </v>
   <v>      -0.33333333       0.33333333       0.10000000 </v>
   <v>      -0.25000000       0.33333333       0.10000000 </v>
   <v>      -0.16666667       0.33333333       0.10000000 </v>
   <v>      -0.08333333       0.33333333       0.10000000 </v>
   <v>       0.00000000       0.41666667       0.10000000 </v>
   <v>       0.08333333       0.41666667       0.10000000 </v>
   <v>       0.16666667       0.41666667       0.10000000 </v>
   <v>       0.25000000       0.41666667       0.10000000 </v>
   <v>       0.33333333       0.41666667       0.10000000 </v>
   <v>       0.41666667       0.41666667       0.10000000 </v>
   <v>       0.50000000       0.41666667       0.10000000 </v>
   <v>      -0.41666667       0.41666667       0.10000000 </v>
   <v>      -0.33333333       0.41666667       0.10000000 </v>
   <v>      -0.25000000       0.41666667       0.10000000 </v>
   <v>      -0.16666667       0.41666667       0.10000000 </v>
   <v>      -0.08333333       0.41666667       0.10000000 </v>
   <v>       0.00000000       0.50000000       0.10000000 </v>
   <v>       0.08333333       0.50000000       0.10000000 </v>
   <v>       0.16666667       0.50000000       0.10000000 </v>
   <v>       0.25000000       0.50000000       0.10000000 </v>
   <v>       0.33333333       0.50000000       0.10000000 </v>
   <v>       0.41666667       0.50000000       0.10000000 </v>
   <v>       0.50000000       0.50000000       0.10000000 </v>
   <v>      -0.41666667       0.50000000       0.10000000 </v>
   <v>      -0.33333333       0.50000000       0.10000000 </v>
   <v>      -0.25000000       0.50000000       0.10000000 </v>
   <v>      -0.16666667       0.50000000       0.10000000 </v>
   <v>      -0.08333333       0.50000000       0.10000000 </v>
   <v>       0.00000000      -0.41666667       0.10000000 </v>
   <v>       0.08333333      -0.41666667       0.10000000 </v>
   <v>       0.16666667      -0.41666667       0.10000000 </v>
   <v>       0.25000000      -0.41666667       0.10000000 </v>
   <v>       0.33333333      -0.41666667       0.10000000 </v>
   <v>       0.41666667      -0.41666667       0.10000000 </v>
   <v>       0.50000000      -0.41666667       0.10000000 </v>
   <v>      -0.41666667      -0.41666667       0.10000000 </v>
   <v>      -0.33333333      -0.41666667       0.10000000 </v>
   <v>      -0.25000000      -0.41666667       0.10000000 </v>
   <v>      -0.16666667      -0.41666667       0.10000000 </v>
   <v>      -0.08333333      -0.41666667       0.10000000 </v>
   <v>       0.00000000      -0.33333333       0.10000000 </v>
   <v>       0.08333333      -0.33333333       0.10000000 </v>
   <v>       0.16666667      -0.33333333       0.10000000 </v>
   <v>       0.25000000      -0.33333333       0.10000000 </v>
   <v>       0.33333333      -0.33333333       0.10000000 </v>
   <v>       0.41666667      -0.33333333       0.10000000 </v>
   <v>       0.50000000      -0.33333333       0.10000000 </v>
   <v>      -0.41666667      -0.33333333       0.10000000 </v>
   <v>      -0.33333333      -0.33333333       0.10000000 </v>
   <v>      -0.25000000      -0.33333333       0.10000000 </v>
   <v>      -0.16666667      -0.33333333       0.10000000 </v>
   <v>      -0.08333333      -0.33333333       0.10000000 </v>
   <v>       0.00000000      -0.25000000       0.10000000 </v>
   <v>       0.08333333      -0.25000000       0.10000000 </v>
   <v>       0.16666667      -0.25000000       0.10000000 </v>
   <v>       0.25000000      -0.25000000       0.10000000 </v>
   <v>       0.33333333      -0.25000000       0.10000000 </v>
   <v>       0.41666667      -0.25000000       0.10000000 </v>
   <v>       0.50000000      -0.25000000       0.10000000 </v>
   <v>      -0.41666667      -0.25000000       0.10000000 </v>
   <v>      -0.33333333      -0.25000000       0.10000000 </v>
   <v>      -0.25000000      -0.25000000       0.10000000 </v>
   <v>      -0.16666667      -0.25000000       0.10000000 </v>
   <v>      -0.08333333      -0.25000000       0.10000000 </v>
   <v>       0.00000000      -0.16666667       0.10000000 </v>
   <v>       0.08333333      -0.16666667       0.10000000 </v>
   <v>       0.16666667      -0.16666667       0.10000000 </v>
   <v>       0.25000000      -0.16666667       0.10000000 </v>
   <v>       0.33333333      -0.16666667       0.10000000 </v>
   <v>       0.41666667      -0.16666667       0.10000000 </v>
   <v>       0.50000000      -0.16666667       0.10000000 </v>
   <v>      -0.41666667      -0.16666667       0.10000000 </v>
   <v>      -0.33333333      -0.16666667       0.10000000 </v>
   <v>      -0.25000000      -0.16666667       0.10000000 </v>
   <v>      -0.16666667      -0.16666667       0.10000000 </v>
   <v>      -0.08333333      -0.16666667       0.10000000 </v>
   <v>       0.00000000      -0.08333333       0.10000000 </v>
   <v>       0.08333333      -0.08333333       0.10000000 </v>
   <v>       0.16666667      -0.08333333       0.10000000 </v>
   <v>       0.25000000      -0.08333333       0.10000000 </v>
   <v>       0.33333333      -0.08333333       0.10000000 </v>
   <v>       0.41666667      -0.08333333       0.10000000 </v>
   <v>       0.50000000      -0.08333333       0.10000000 </v>
   <v>      -0.41666667      -0.08333333       0.10000000 </v>
   <v>      -0.33333333      -0.08333333       0.10000000 </v>
   <v>      -0.25000000      -0.08333333       0.10000000 </v>
   <v>      -0.16666667      -0.08333333       0.10000000 </v>
   <v>      -0.08333333      -0.08333333       0.10000000 </v>
   <v>       0.00000000       0.00000000       0.20000000 </v>
   <v>       0.08333333       0.00000000       0.20000000 </v>
   <v>       0.16666667       0.00000000       0.20000000 </v>
   <v>       0.25000000       0.00000000       0.20000000 </v>
   <v>       0.33333333       0.00000000       0.20000000 </v>
   <v>       0.41666667       0.00000000       0.20000000 </v>
   <v>       0.50000000       0.00000000       0.20000000 </v>
   <v>      -0.41666667       0.00000000       0.20000000 </v>
   <v>      -0.33333333       0.00000000       0.20000000 </v>
   <v>      -0.25000000       0.00000000       0.20000000 </v>
   <v>      -0.16666667       0.00000000       0.20000000 </v>
   <v>      -0.08333333       0.00000000       0.20000000 </v>
   <v>       0.00000000       0.08333333       0.20000000 </v>
   <v>       0.08333333       0.08333333       0.20000000 </v>
   <v>       0.16666667       0.08333333       0.20000000 </v>
   <v>       0.25000000       0.08333333       0.20000000 </v>
   <v>       0.33333333       0.08333333       0.20000000 </v>
   <v>       0.41666667       0.08333333       0.20000000 </v>
   <v>       0.50000000       0.08333333       0.20000000 </v>
   <v>      -0.41666667       0.08333333       0.20000000 </v>
   <v>      -0.33333333       0.08333333       0.20000000 </v>
   <v>      -0.25000000       0.08333333       0.20000000 </v>
   <v>      -0.16666667       0.08333333       0.20000000 </v>
   <v>      -0.08333333       0.08333333       0.20000000 </v>
   <v>       0.00000000       0.16666667       0.20000000 </v>
   <v>       0.08333333       0.16666667       0.20000000 </v>
   <v>       0.16666667       0.16666667       0.20000000 </v>
   <v>       0.25000000       0.16666667       0.20000000 </v>
   <v>       0.33333333       0.16666667       0.20000000 </v>
   <v>       0.41666667       0.16666667       0.20000000 </v>
   <v>       0.50000000       0.16666667       0.20000000 </v>
   <v>      -0.41666667       0.16666667       0.20000000 </v>
   <v>      -0.33333333       0.16666667       0.20000000 </v>
   <v>      -0.25000000       0.16666667       0.20000000 </v>
   <v>      -0.16666667       0.16666667       0.20000000 </v>
   <v>      -0.08333333       0.16666667       0.20000000 </v>
   <v>       0.00000000       0.25000000       0.20000000 </v>
   <v>       0.08333333       0.25000000       0.20000000 </v>
   <v>       0.16666667       0.25000000       0.20000000 </v>
   <v>       0.25000000       0.25000000       0.20000000 </v>
   <v>       0.33333333       0.25000000       0.20000000 </v>
   <v>       0.41666667       0.25000000       0.20000000 </v>
   <v>       0.50000000       0.25000000       0.20000000 </v>
   <v>      -0.41666667       0.25000000       0.20000000 </v>
   <v>      -0.33333333       0.25000000       0.20000000 </v>
   <v>      -0.25000000       0.25000000       0.20000000 </v>
   <v>      -0.16666667       0.25000000       0.20000000 </v>
   <v>      -0.08333333       0.25000000       0.20000000 </v>
   <v>       0.00000000       0.33333333       0.20000000 </v>
   <v>       0.08333333       0.33333333       0.20000000 </v>
   <v>       0.16666667       0.33333333       0.20000000 </v>
   <v>       0.25000000       0.33333333       0.20000000 </v>
   <v>       0.33333333       0.33333333       0.20000000 </v>
   <v>       0.41666667       0.33333333       0.20000000 </v>
   <v>       0.50000000       0.33333333       0.20000000 </v>
   <v>      -0.41666667       0.33333333       0.20000000 </v>
   <v>      -0.33333333       0.33333333       0.20000000 </v>
   <v>      -0.25000000       0.33333333       0.20000000 </v>
   <v>      -0.16666667       0.33333333       0.20000000 </v>
   <v>      -0.08333333       0.33333333       0.20000000 </v>
   <v>       0.00000000       0.41666667       0.20000000 </v>
   <v>       0.08333333       0.41666667       0.20000000 </v>
   <v>       0.16666667       0.41666667       0.20000000 </v>
   <v>       0.25000000       0.41666667       0.20000000 </v>
   <v>       0.33333333       0.41666667       0.20000000 </v>
   <v>       0.41666667       0.41666667       0.20000000 </v>
   <v>       0.50000000       0.41666667       0.20000000 </v>
   <v>      -0.41666667       0.41666667       0.20000000 </v>
   <v>      -0.33333333       0.41666667       0.20000000 </v>
   <v>      -0.25000000       0.41666667       0.20000000 </v>
   <v>      -0.16666667       0.41666667       0.20000000 </v>
   <v>      -0.08333333       0.41666667       0.20000000 </v>
   <v>       0.00000000       0.50000000       0.20000000 </v>
   <v>       0.08333333       0.50000000       0.20000000 </v>
   <v>       0.16666667       0.50000000       0.20000000 </v>
   <v>       0.25000000       0.50000000       0.20000000 </v>
   <v>       0.33333333       0.50000000       0.20000000 </v>
   <v>       0.41666667       0.50000000       0.20000000 </v>
   <v>       0.50000000       0.50000000       0.20000000 </v>
   <v>      -0.41666667       0.50000000       0.20000000 </v>
   <v>      -0.33333333       0.50000000       0.20000000 </v>
   <v>      -0.25000000       0.50000000       0.20000000 </v>
   <v>      -0.16666667       0.50000000       0.20000000 </v>
   <v>      -0.08333333       0.50000000       0.20000000 </v>
   <v>       0.00000000      -0.41666667       0.20000000 </v>
   <v>       0.08333333      -0.41666667       0.20000000 </v>
   <v>       0.16666667      -0.41666667       0.20000000 </v>
   <v>       0.25000000      -0.41666667       0.20000000 </v>
   <v>       0.33333333      -0.41666667       0.20000000 </v>
   <v>       0.41666667      -0.41666667       0.20000000 </v>
   <v>       0.50000000      -0.41666667       0.20000000 </v>
   <v>      -0.41666667      -0.41666667       0.20000000 </v>
   <v>      -0.33333333      -0.41666667       0.20000000 </v>
   <v>      -0.25000000      -0.41666667       0.20000000 </v>
   <v>      -0.16666667      -0.41666667       0.20000000 </v>
   <v>      -0.08333333      -0.41666667       0.20000000 </v>
   <v>       0.00000000      -0.33333333       0.20000000 </v>
   <v>       0.08333333      -0.33333333       0.20000000 </v>
   <v>       0.16666667      -0.33333333       0.20000000 </v>
   <v>       0.25000000      -0.33333333       0.20000000 </v>
   <v>       0.33333333      -0.33333333       0.20000000 </v>
   <v>       0.41666667      -0.33333333       0.20000000 </v>
   <v>       0.50000000      -0.33333333       0.20000000 </v>
   <v>      -0.41666667      -0.33333333       0.20000000 </v>
   <v>      -0.33333333      -0.33333333       0.20000000 </v>
   <v>      -0.25000000      -0.33333333       0.20000000 </v>
   <v>      -0.16666667      -0.33333333       0.20000000 </v>
   <v>      -0.08333333      -0.33333333       0.20000000 </v>
   <v>       0.00000000      -0.25000000       0.20000000 </v>
   <v>       0.08333333      -0.25000000       0.20000000 </v>
   <v>       0.16666667      -0.25000000       0.20000000 </v>
   <v>       0.25000000      -0.25000000       0.20000000 </v>
   <v>       0.33333333      -0.25000000       0.20000000 </v>
   <v>       0.41666667      -0.25000000       0.20000000 </v>
   <v>       0.50000000      -0.25000000       0.20000000 </v>
   <v>      -0.41666667      -0.25000000       0.20000000 </v>
   <v>      -0.33333333      -0.25000000       0.20000000 </v>
   <v>      -0.25000000      -0.25000000       0.20000000 </v>
   <v>      -0.16666667      -0.25000000       0.20000000 </v>
   <v>      -0.08333333      -0.25000000       0.20000000 </v>
   <v>       0.00000000      -0.16666667       0.20000000 </v>
   <v>       0.08333333      -0.16666667       0.20000000 </v>
   <v>       0.16666667      -0.16666667       0.20000000 </v>
   <v>       0.25000000      -0.16666667       0.20000000 </v>
   <v>       0.33333333      -0.16666667       0.20000000 </v>
   <v>       0.41666667      -0.16666667       0.20000000 </v>
   <v>       0.50000000      -0.16666667       0.20000000 </v>
   <v>      -0.41666667      -0.16666667       0.20000000 </v>
   <v>      -0.33333333      -0.16666667       0.20000000 </v>
   <v>      -0.25000000      -0.16666667       0.20000000 </v>
   <v>      -0.16666667      -0.16666667       0.20000000 </v>
   <v>      -0.08333333      -0.16666667       0.20000000 </v>
   <v>       0.00000000      -0.08333333       0.20000000 </v>
   <v>       0.08333333      -0.08333333       0.20000000 </v>
   <v>       0.16666667      -0.08333333       0.20000000 </v>
   <v>       0.25000000      -0.08333333       0.20000000 </v>
   <v>       0.33333333      -0.08333333       0.20000000 </v>
   <v>       0.41666667      -0.08333333       0.20000000 </v>
   <v>       0.50000000      -0.08333333       0.20000000 </v>
   <v>      -0.41666667      -0.08333333       0.20000000 </v>
   <v>      -0.33333333      -0.08333333       0.20000000 </v>
   <v>      -0.25000000      -0.08333333       0.20000000 </v>
   <v>      -0.16666667      -0.08333333       0.20000000 </v>
   <v>      -0.08333333      -0.08333333       0.20000000 </v>
   <v>       0.00000000       0.00000000       0.30000000 </v>
   <v>       0.08333333       0.00000000       0.30000000 </v>
   <v>       0.16666667       0.00000000       0.30000000 </v>
   <v>       0.25000000       0.00000000       0.30000000 </v>
   <v>       0.33333333       0.00000000       0.30000000 </v>
   <v>       0.41666667       0.00000000       0.30000000 </v>
   <v>       0.50000000       0.00000000       0.30000000 </v>
   <v>      -0.41666667       0.00000000       0.30000000 </v>
   <v>      -0.33333333       0.00000000       0.30000000 </v>
   <v>      -0.25000000       0.00000000       0.30000000 </v>
   <v>      -0.16666667       0.00000000       0.30000000 </v>
   <v>      -0.08333333       0.00000000       0.30000000 </v>
   <v>       0.00000000       0.08333333       0.30000000 </v>
   <v>       0.08333333       0.08333333       0.30000000 </v>
   <v>       0.16666667       0.08333333       0.30000000 </v>
   <v>       0.25000000       0.08333333       0.30000000 </v>
   <v>       0.33333333       0.08333333       0.30000000 </v>
   <v>       0.41666667       0.08333333       0.30000000 </v>
   <v>       0.50000000       0.08333333       0.30000000 </v>
   <v>      -0.41666667       0.08333333       0.30000000 </v>
   <v>      -0.33333333       0.08333333       0.30000000 </v>
   <v>      -0.25000000       0.08333333       0.30000000 </v>
   <v>      -0.16666667       0.08333333       0.30000000 </v>
   <v>      -0.08333333       0.08333333       0.30000000 </v>
   <v>       0.00000000       0.16666667       0.30000000 </v>
   <v>       0.08333333       0.16666667       0.30000000 </v>
   <v>       0.16666667       0.16666667       0.30000000 </v>
   <v>       0.25000000       0.16666667       0.30000000 </v>
   <v>       0.33333333       0.16666667       0.30000000 </v>
   <v>       0.41666667       0.16666667       0.30000000 </v>
   <v>       0.50000000       0.16666667       0.30000000 </v>
   <v>      -0.41666667       0.16666667       0.30000000 </v>
   <v>      -0.33333333       0.16666667       0.30000000 </v>
   <v>      -0.25000000       0.16666667       0.30000000 </v>
   <v>      -0.16666667       0.16666667       0.30000000 </v>
   <v>      -0.08333333       0.16666667       0.30000000 </v>
   <v>       0.00000000       0.25000000       0.30000000 </v>
   <v>       0.08333333       0.25000000       0.30000000 </v>
   <v>       0.16666667       0.25000000       0.30000000 </v>
   <v>       0.25000000       0.25000000       0.30000000 </v>
   <v>       0.33333333       0.25000000       0.30000000 </v>
   <v>       0.41666667       0.25000000       0.30000000 </v>
   <v>       0.50000000       0.25000000       0.30000000 </v>
   <v>      -0.41666667       0.25000000       0.30000000 </v>
   <v>      -0.33333333       0.25000000       0.30000000 </v>
   <v>      -0.25000000       0.25000000       0.30000000 </v>
   <v>      -0.16666667       0.25000000       0.30000000 </v>
   <v>      -0.08333333       0.25000000       0.30000000 </v>
   <v>       0.00000000       0.33333333       0.30000000 </v>
   <v>       0.08333333       0.33333333       0.30000000 </v>
   <v>       0.16666667       0.33333333       0.30000000 </v>
   <v>       0.25000000       0.33333333       0.30000000 </v>
   <v>       0.33333333       0.33333333       0.30000000 </v>
   <v>       0.41666667       0.33333333       0.30000000 </v>
   <v>       0.50000000       0.33333333       0.30000000 </v>
   <v>      -0.41666667       0.33333333       0.30000000 </v>
   <v>      -0.33333333       0.33333333       0.30000000 </v>
   <v>      -0.25000000       0.33333333       0.30000000 </v>
   <v>      -0.16666667       0.33333333       0.30000000 </v>
   <v>      -0.08333333       0.33333333       0.30000000 </v>
   <v>       0.00000000       0.41666667       0.30000000 </v>
   <v>       0.08333333       0.41666667       0.30000000 </v>
   <v>       0.16666667       0.41666667       0.30000000 </v>
   <v>       0.25000000       0.41666667       0.30000000 </v>
   <v>       0.33333333       0.41666667       0.30000000 </v>
   <v>       0.41666667       0.41666667       0.30000000 </v>
   <v>       0.50000000       0.41666667       0.30000000 </v>
   <v>      -0.41666667       0.41666667       0.30000000 </v>
   <v>      -0.33333333       0.41666667       0.30000000 </v>
   <v>      -0.25000000       0.41666667       0.30000000 </v>
   <v>      -0.16666667       0.41666667       0.30000000 </v>
   <v>      -0.08333333       0.41666667       0.30000000 </v>
   <v>       0.00000000       0.50000000       0.30000000 </v>
   <v>       0.08333333       0.50000000       0.30000000 </v>
   <v>       0.16666667       0.50000000       0.30000000 </v>
   <v>       0.25000000       0.50000000       0.30000000 </v>
   <v>       0.33333333       0.50000000       0.30000000 </v>
   <v>       0.41666667       0.50000000       0.30000000 </v>
   <v>       0.50000000       0.50000000       0.30000000 </v>
   <v>      -0.41666667       0.50000000       0.30000000 </v>
   <v>      -0.33333333       0.50000000       0.30000000 </v>
   <v>      -0.25000000       0.50000000       0.30000000 </v>
   <v>      -0.16666667       0.50000000       0.30000000 </v>
   <v>      -0.08333333       0.50000000       0.30000000 </v>
   <v>       0.00000000      -0.41666667       0.30000000 </v>
   <v>       0.08333333      -0.41666667       0.30000000 </v>
   <v>       0.16666667      -0.41666667       0.30000000 </v>
   <v>       0.25000000      -0.41666667       0.30000000 </v>
   <v>       0.33333333      -0.41666667       0.30000000 </v>
   <v>       0.41666667      -0.41666667       0.30000000 </v>
   <v>       0.50000000      -0.41666667       0.30000000 </v>
   <v>      -0.41666667      -0.41666667       0.30000000 </v>
   <v>      -0.33333333      -0.41666667       0.30000000 </v>
   <v>      -0.25000000      -0.41666667       0.30000000 </v>
   <v>      -0.16666667      -0.41666667       0.30000000 </v>
   <v>      -0.08333333      -0.41666667       0.30000000 </v>
   <v>       0.00000000      -0.33333333       0.30000000 </v>
   <v>       0.08333333      -0.33333333       0.30000000 </v>
   <v>       0.16666667      -0.33333333       0.30000000 </v>
   <v>       0.25000000      -0.33333333       0.30000000 </v>
   <v>       0.33333333      -0.33333333       0.30000000 </v>
   <v>       0.41666667      -0.33333333       0.30000000 </v>
   <v>       0.50000000      -0.33333333       0.30000000 </v>
   <v>      -0.41666667      -0.33333333       0.30000000 </v>
   <v>      -0.33333333      -0.33333333       0.30000000 </v>
   <v>      -0.25000000      -0.33333333       0.30000000 </v>
   <v>      -0.16666667      -0.33333333       0.30000000 </v>
   <v>      -0.08333333      -0.33333333       0.30000000 </v>
   <v>       0.00000000      -0.25000000       0.30000000 </v>
   <v>       0.08333333      -0.25000000       0.30000000 </v>
   <v>       0.16666667      -0.25000000       0.30000000 </v>
   <v>       0.25000000      -0.25000000       0.30000000 </v>
   <v>       0.33333333      -0.25000000       0.30000000 </v>
   <v>       0.41666667      -0.25000000       0.30000000 </v>
   <v>       0.50000000      -0.25000000       0.30000000 </v>
   <v>      -0.41666667      -0.25000000       0.30000000 </v>
   <v>      -0.33333333      -0.25000000       0.30000000 </v>
   <v>      -0.25000000      -0.25000000       0.30000000 </v>
   <v>      -0.16666667      -0.25000000       0.30000000 </v>
   <v>      -0.08333333      -0.25000000       0.30000000 </v>
   <v>       0.00000000      -0.16666667       0.30000000 </v>
   <v>       0.08333333      -0.16666667       0.30000000 </v>
   <v>       0.16666667      -0.16666667       0.30000000 </v>
   <v>       0.25000000      -0.16666667       0.30000000 </v>
   <v>       0.33333333      -0.16666667       0.30000000 </v>
   <v>       0.41666667      -0.16666667       0.30000000 </v>
   <v>       0.50000000      -0.16666667       0.30000000 </v>
   <v>      -0.41666667      -0.16666667       0.30000000 </v>
   <v>      -0.33333333      -0.16666667       0.30000000 </v>
   <v>      -0.25000000      -0.16666667       0.30000000 </v>
   <v>      -0.16666667      -0.16666667       0.30000000 </v>
   <v>      -0.08333333      -0.16666667       0.30000000 </v>
   <v>       0.00000000      -0.08333333       0.30000000 </v>
   <v>       0.08333333      -0.08333333       0.30000000 </v>
   <v>       0.16666667      -0.08333333       0.30000000 </v>
   <v>       0.25000000      -0.08333333       0.30000000 </v>
   <v>       0.33333333      -0.08333333       0.30000000 </v>
   <v>       0.41666667      -0.08333333       0.30000000 </v>
   <v>       0.50000000      -0.08333333       0.30000000 </v>
   <v>      -0.41666667      -0.08333333       0.30000000 </v>
   <v>      -0.33333333      -0.08333333       0.30000000 </v>
   <v>      -0.25000000      -0.08333333       0.30000000 </v>
   <v>      -0.16666667      -0.08333333       0.30000000 </v>
   <v>      -0.08333333      -0.08333333       0.30000000 </v>
   <v>       0.00000000       0.00000000       0.40000000 </v>
   <v>       0.08333333       0.00000000       0.40000000 </v>
   <v>       0.16666667       0.00000000       0.40000000 </v>
   <v>       0.25000000       0.00000000       0.40000000 </v>
   <v>       0.33333333       0.00000000       0.40000000 </v>
   <v>       0.41666667       0.00000000       0.40000000 </v>
   <v>       0.50000000       0.00000000       0.40000000 </v>
   <v>      -0.41666667       0.00000000       0.40000000 </v>
   <v>      -0.33333333       0.00000000       0.40000000 </v>
   <v>      -0.25000000       0.00000000       0.40000000 </v>
   <v>      -0.16666667       0.00000000       0.40000000 </v>
   <v>      -0.08333333       0.00000000       0.40000000 </v>
   <v>       0.00000000       0.08333333       0.40000000 </v>
   <v>       0.08333333       0.08333333       0.40000000 </v>
   <v>       0.16666667       0.08333333       0.40000000 </v>
   <v>       0.25000000       0.08333333       0.40000000 </v>
   <v>       0.33333333       0.08333333       0.40000000 </v>
   <v>       0.41666667       0.08333333       0.40000000 </v>
   <v>       0.50000000       0.08333333       0.40000000 </v>
   <v>      -0.41666667       0.08333333       0.40000000 </v>
   <v>      -0.33333333       0.08333333       0.40000000 </v>
   <v>      -0.25000000       0.08333333       0.40000000 </v>
   <v>      -0.16666667       0.08333333       0.40000000 </v>
   <v>      -0.08333333       0.08333333       0.40000000 </v>
   <v>       0.00000000       0.16666667       0.40000000 </v>
   <v>       0.08333333       0.16666667       0.40000000 </v>
   <v>       0.16666667       0.16666667       0.40000000 </v>
   <v>       0.25000000       0.16666667       0.40000000 </v>
   <v>       0.33333333       0.16666667       0.40000000 </v>
   <v>       0.41666667       0.16666667       0.40000000 </v>
   <v>       0.50000000       0.16666667       0.40000000 </v>
   <v>      -0.41666667       0.16666667       0.40000000 </v>
   <v>      -0.33333333       0.16666667       0.40000000 </v>
   <v>      -0.25000000       0.16666667       0.40000000 </v>
   <v>      -0.16666667       0.16666667       0.40000000 </v>
   <v>      -0.08333333       0.16666667       0.40000000 </v>
   <v>       0.00000000       0.25000000       0.40000000 </v>
   <v>       0.08333333       0.25000000       0.40000000 </v>
   <v>       0.16666667       0.25000000       0.40000000 </v>
   <v>       0.25000000       0.25000000       0.40000000 </v>
   <v>       0.33333333       0.25000000       0.40000000 </v>
   <v>       0.41666667       0.25000000       0.40000000 </v>
   <v>       0.50000000       0.25000000       0.40000000 </v>
   <v>      -0.41666667       0.25000000       0.40000000 </v>
   <v>      -0.33333333       0.25000000       0.40000000 </v>
   <v>      -0.25000000       0.25000000       0.40000000 </v>
   <v>      -0.16666667       0.25000000       0.40000000 </v>
   <v>      -0.08333333       0.25000000       0.40000000 </v>
   <v>       0.00000000       0.33333333       0.40000000 </v>
   <v>       0.08333333       0.33333333       0.40000000 </v>
   <v>       0.16666667       0.33333333       0.40000000 </v>
   <v>       0.25000000       0.33333333       0.40000000 </v>
   <v>       0.33333333       0.33333333       0.40000000 </v>
   <v>       0.41666667       0.33333333       0.40000000 </v>
   <v>       0.50000000       0.33333333       0.40000000 </v>
   <v>      -0.41666667       0.33333333       0.40000000 </v>
   <v>      -0.33333333       0.33333333       0.40000000 </v>
   <v>      -0.25000000       0.33333333       0.40000000 </v>
   <v>      -0.16666667       0.33333333       0.40000000 </v>
   <v>      -0.08333333       0.33333333       0.40000000 </v>
   <v>       0.00000000       0.41666667       0.40000000 </v>
   <v>       0.08333333       0.41666667       0.40000000 </v>
   <v>       0.16666667       0.41666667       0.40000000 </v>
   <v>       0.25000000       0.41666667       0.40000000 </v>
   <v>       0.33333333       0.41666667       0.40000000 </v>
   <v>       0.41666667       0.41666667       0.40000000 </v>
   <v>       0.50000000       0.41666667       0.40000000 </v>
   <v>      -0.41666667       0.41666667       0.40000000 </v>
   <v>      -0.33333333       0.41666667       0.40000000 </v>
   <v>      -0.25000000       0.41666667       0.40000000 </v>
   <v>      -0.16666667       0.41666667       0.40000000 </v>
   <v>      -0.08333333       0.41666667       0.40000000 </v>
   <v>       0.00000000       0.50000000       0.40000000 </v>
   <v>       0.08333333       0.50000000       0.40000000 </v>
   <v>       0.16666667       0.50000000       0.40000000 </v>
   <v>       0.25000000       0.50000000       0.40000000 </v>
   <v>       0.33333333       0.50000000       0.40000000 </v>
   <v>       0.41666667       0.50000000       0.40000000 </v>
   <v>       0.50000000       0.50000000       0.40000000 </v>
   <v>      -0.41666667       0.50000000       0.40000000 </v>
   <v>      -0.33333333       0.50000000       0.40000000 </v>
   <v>      -0.25000000       0.50000000       0.40000000 </v>
   <v>      -0.16666667       0.50000000       0.40000000 </v>
   <v>      -0.08333333       0.50000000       0.40000000 </v>
   <v>       0.00000000      -0.41666667       0.40000000 </v>
   <v>       0.08333333      -0.41666667       0.40000000 </v>
   <v>       0.16666667      -0.41666667       0.40000000 </v>
   <v>       0.25000000      -0.41666667       0.40000000 </v>
   <v>       0.33333333      -0.41666667       0.40000000 </v>
   <v>       0.41666667      -0.41666667       0.40000000 </v>
   <v>       0.50000000      -0.41666667       0.40000000 </v>
   <v>      -0.41666667      -0.41666667       0.40000000 </v>
   <v>      -0.33333333      -0.41666667       0.40000000 </v>
   <v>      -0.25000000      -0.41666667       0.40000000 </v>
   <v>      -0.16666667      -0.41666667       0.40000000 </v>
   <v>      -0.08333333      -0.41666667       0.40000000 </v>
   <v>       0.00000000      -0.33333333       0.40000000 </v>
   <v>       0.08333333      -0.33333333       0.40000000 </v>
   <v>       0.16666667      -0.33333333       0.40000000 </v>
   <v>       0.25000000      -0.33333333       0.40000000 </v>
   <v>       0.33333333      -0.33333333       0.40000000 </v>
   <v>       0.41666667      -0.33333333       0.40000000 </v>
   <v>       0.50000000      -0.33333333       0.40000000 </v>
   <v>      -0.41666667      -0.33333333       0.40000000 </v>
   <v>      -0.33333333      -0.33333333       0.40000000 </v>
   <v>      -0.25000000      -0.33333333       0.40000000 </v>
   <v>      -0.16666667      -0.33333333       0.40000000 </v>
   <v>      -0.08333333      -0.33333333       0.40000000 </v>
   <v>       0.00000000      -0.25000000       0.40000000 </v>
   <v>       0.08333333      -0.25000000       0.40000000 </v>
   <v>       0.16666667      -0.25000000       0.40000000 </v>
   <v>       0.25000000      -0.25000000       0.40000000 </v>
   <v>       0.33333333      -0.25000000       0.40000000 </v>
   <v>       0.41666667      -0.25000000       0.40000000 </v>
   <v>       0.50000000      -0.25000000       0.40000000 </v>
   <v>      -0.41666667      -0.25000000       0.40000000 </v>
   <v>      -0.33333333      -0.25000000       0.40000000 </v>
   <v>      -0.25000000      -0.25000000       0.40000000 </v>
   <v>      -0.16666667      -0.25000000       0.40000000 </v>
   <v>      -0.08333333      -0.25000000       0.40000000 </v>
   <v>       0.00000000      -0.16666667       0.40000000 </v>
   <v>       0.08333333      -0.16666667       0.40000000 </v>
   <v>       0.16666667      -0.16666667       0.40000000 </v>
   <v>       0.25000000      -0.16666667       0.40000000 </v>
   <v>       0.33333333      -0.16666667       0.40000000 </v>
   <v>       0.41666667      -0.16666667       0.40000000 </v>
   <v>       0.50000000      -0.16666667       0.40000000 </v>
   <v>      -0.41666667      -0.16666667       0.40000000 </v>
   <v>      -0.33333333      -0.16666667       0.40000000 </v>
   <v>      -0.25000000      -0.16666667       0.40000000 </v>
   <v>      -0.16666667      -0.16666667       0.40000000 </v>
   <v>      -0.08333333      -0.16666667       0.40000000 </v>
   <v>       0.00000000      -0.08333333       0.40000000 </v>
   <v>       0.08333333      -0.08333333       0.40000000 </v>
   <v>       0.16666667      -0.08333333       0.40000000 </v>
   <v>       0.25000000      -0.08333333       0.40000000 </v>
   <v>       0.33333333      -0.08333333       0.40000000 </v>
   <v>       0.41666667      -0.08333333       0.40000000 </v>
   <v>       0.50000000      -0.08333333       0.40000000 </v>
   <v>      -0.41666667      -0.08333333       0.40000000 </v>
   <v>      -0.33333333      -0.08333333       0.40000000 </v>
   <v>      -0.25000000      -0.08333333       0.40000000 </v>
   <v>      -0.16666667      -0.08333333       0.40000000 </v>
   <v>      -0.08333333      -0.08333333       0.40000000 </v>
   <v>       0.00000000       0.00000000       0.50000000 </v>
   <v>       0.08333333       0.00000000       0.50000000 </v>
   <v>       0.16666667       0.00000000       0.50000000 </v>
   <v>       0.25000000       0.00000000       0.50000000 </v>
   <v>       0.33333333       0.00000000       0.50000000 </v>
   <v>       0.41666667       0.00000000       0.50000000 </v>
   <v>       0.50000000       0.00000000       0.50000000 </v>
   <v>       0.00000000       0.08333333       0.50000000 </v>
   <v>       0.08333333       0.08333333       0.50000000 </v>
   <v>       0.16666667       0.08333333       0.50000000 </v>
   <v>       0.25000000       0.08333333       0.50000000 </v>
   <v>       0.33333333       0.08333333       0.50000000 </v>
   <v>       0.41666667       0.08333333       0.50000000 </v>
   <v>       0.50000000       0.08333333       0.50000000 </v>
   <v>      -0.41666667       0.08333333       0.50000000 </v>
   <v>      -0.33333333       0.08333333       0.50000000 </v>
   <v>      -0.25000000       0.08333333       0.50000000 </v>
   <v>      -0.16666667       0.08333333       0.50000000 </v>
   <v>      -0.08333333       0.08333333       0.50000000 </v>
   <v>       0.00000000       0.16666667       0.50000000 </v>
   <v>       0.08333333       0.16666667       0.50000000 </v>
   <v>       0.16666667       0.16666667       0.50000000 </v>
   <v>       0.25000000       0.16666667       0.50000000 </v>
   <v>       0.33333333       0.16666667       0.50000000 </v>
   <v>       0.41666667       0.16666667       0.50000000 </v>
   <v>       0.50000000       0.16666667       0.50000000 </v>
   <v>      -0.41666667       0.16666667       0.50000000 </v>
   <v>      -0.33333333       0.16666667       0.50000000 </v>
   <v>      -0.25000000       0.16666667       0.50000000 </v>
   <v>      -0.16666667       0.16666667       0.50000000 </v>
   <v>      -0.08333333       0.16666667       0.50000000 </v>
   <v>       0.00000000       0.25000000       0.50000000 </v>
   <v>       0.08333333       0.25000000       0.50000000 </v>
   <v>       0.16666667       0.25000000       0.50000000 </v>
   <v>       0.25000000       0.25000000       0.50000000 </v>
   <v>       0.33333333       0.25000000       0.50000000 </v>
   <v>       0.41666667       0.25000000       0.50000000 </v>
   <v>       0.50000000       0.25000000       0.50000000 </v>
   <v>      -0.41666667       0.25000000       0.50000000 </v>
   <v>      -0.33333333       0.25000000       0.50000000 </v>
   <v>      -0.25000000       0.25000000       0.50000000 </v>
   <v>      -0.16666667       0.25000000       0.50000000 </v>
   <v>      -0.08333333       0.25000000       0.50000000 </v>
   <v>       0.00000000       0.33333333       0.50000000 </v>
   <v>       0.08333333       0.33333333       0.50000000 </v>
   <v>       0.16666667       0.33333333       0.50000000 </v>
   <v>       0.25000000       0.33333333       0.50000000 </v>
   <v>       0.33333333       0.33333333       0.50000000 </v>
   <v>       0.41666667       0.33333333       0.50000000 </v>
   <v>       0.50000000       0.33333333       0.50000000 </v>
   <v>      -0.41666667       0.33333333       0.50000000 </v>
   <v>      -0.33333333       0.33333333       0.50000000 </v>
   <v>      -0.25000000       0.33333333       0.50000000 </v>
   <v>      -0.16666667       0.33333333       0.50000000 </v>
   <v>      -0.08333333       0.33333333       0.50000000 </v>
   <v>       0.00000000       0.41666667       0.50000000 </v>
   <v>       0.08333333       0.41666667       0.50000000 </v>
   <v>       0.16666667       0.41666667       0.50000000 </v>
   <v>       0.25000000       0.41666667       0.50000000 </v>
   <v>       0.33333333       0.41666667       0.50000000 </v>
   <v>       0.41666667       0.41666667       0.50000000 </v>
   <v>       0.50000000       0.41666667       0.50000000 </v>
   <v>      -0.41666667       0.41666667       0.50000000 </v>
   <v>      -0.33333333       0.41666667       0.50000000 </v>
   <v>      -0.25000000       0.41666667       0.50000000 </v>
   <v>      -0.16666667       0.41666667       0.50000000 </v>
   <v>      -0.08333333       0.41666667       0.50000000 </v>
   <v>       0.00000000       0.50000000       0.50000000 </v>
   <v>       0.08333333       0.50000000       0.50000000 </v>
   <v>       0.16666667       0.50000000       0.50000000 </v>
   <v>       0.25000000       0.50000000       0.50000000 </v>
   <v>       0.33333333       0.50000000       0.50000000 </v>
   <v>       0.41666667       0.50000000       0.50000000 </v>
   <v>       0.50000000       0.50000000       0.50000000 </v>
  </varray>
  <varray name="weights" >
   <v>       0.00069444 </v>
   <v>       0.00138889 </v>
   <v>       0.00138889 </v>
   <v>       0.00138889 </v>
   <v>       0.00138889 </v>
   <v>       0.00138889 </v>
   <v>       0.00069444 </v>
   <v>       0.00138889 </v>
   <v>       0.00138889 </v>
   <v>       0.00138889 </v>
   <v>       0.00138889 </v>
   <v>       0.00138889 </v>
   <v>       0.00138889 </v>
   <v>       0.00138889 </v>
   <v>       0.00138889 </v>
   <v>       0.00138889 </v>
   <v>       0.00138889 </v>
   <v>       0.00138889 </v>
   <v>       0.00138889 </v>
   <v>       0.00138889 </v>
   <v>       0.00138889 </v>
   <v>       0.00138889 </v>
   <v>       0.00138889 </v>
   <v>       0.00138889 </v>
   <v>       0.00138889 </v>
   <v>       0.00138889 </v>
   <v>       0.00138889 </v>
   <v>       0.00138889 </v>
   <v>       0.00138889 </v>
   <v>       0.00138889 </v>
   <v>       0.00138889 </v>
   <v>       0.00138889 </v>
   <v>       0.00138889 </v>
   <v>       0.00138889 </v>
   <v>       0.00138889 </v>
   <v>       0.00138889 </v>
   <v>       0.00138889 </v>
   <v>       0.00138889 </v>
   <v>       0.00138889 </v>
   <v>       0.00138889 </v>
   <v>       0.00138889 </v>
   <v>       0.00138889 </v>
   <v>       0.00138889 </v>
   <v>       0.00138889 </v>
   <v>       0.00138889 </v>
   <v>       0.00138889 </v>
   <v>       0.00138889 </v>
   <v>       0.00138889 </v>
   <v>       0.00138889 </v>
   <v>       0.00138889 </v>
   <v>       0.00138889 </v>
   <v>       0.00138889 </v>
   <v>       0.00138889 </v>
   <v>       0.00138889 </v>
   <v>       0.00138889 </v>
   <v>       0.00138889 </v>
   <v>       0.00138889 </v>
   <v>       0.00138889 </v>
   <v>       0.00138889 </v>
   <v>       0.00138889 </v>
   <v>       0.00138889 </v>
   <v>       0.00138889 </v>
   <v>       0.00138889 </v>
   <v>       0.00138889 </v>
   <v>       0.00138889 </v>
   <v>       0.00138889 </v>
   <v>       0.00138889 </v>
   <v>       0.00069444 </v>
   <v>       0.00138889 </v>
   <v>       0.00138889 </v>
   <v>       0.00138889 </v>
   <v>       0.00138889 </v>
   <v>       0.00138889 </v>
   <v>       0.00069444 </v>
   <v>       0.00138889 </v>
   <v>       0.00138889 </v>
   <v>       0.00138889 </v>
   <v>       0.00138889 </v>
   <v>       0.00138889 </v>
   <v>       0.00138889 </v>
   <v>       0.00138889 </v>
   <v>       0.00138889 </v>
   <v>       0.00138889 </v>
   <v>       0.00138889 </v>
   <v>       0.00138889 </v>
   <v>       0.00138889 </v>
   <v>       0.00138889 </v>
   <v>       0.00138889 </v>
   <v>       0.00138889 </v>
   <v>       0.00138889 </v>
   <v>       0.00138889 </v>
   <v>       0.00138889 </v>
   <v>       0.00138889 </v>
   <v>       0.00138889 </v>
   <v>       0.00138889 </v>
   <v>       0.00138889 </v>
   <v>       0.00138889 </v>
   <v>       0.00138889 </v>
   <v>       0.00138889 </v>
   <v>       0.00138889 </v>
   <v>       0.00138889 </v>
   <v>       0.00138889 </v>
   <v>       0.00138889 </v>
   <v>       0.00138889 </v>
   <v>       0.00138889 </v>
   <v>       0.00138889 </v>
   <v>       0.00138889 </v>
   <v>       0.00138889 </v>
   <v>       0.00138889 </v>
   <v>       0.00138889 </v>
   <v>       0.00138889 </v>
   <v>       0.00138889 </v>
   <v>       0.00138889 </v>
   <v>       0.00138889 </v>
   <v>       0.00138889 </v>
   <v>       0.00138889 </v>
   <v>       0.00138889 </v>
   <v>       0.00138889 </v>
   <v>       0.00138889 </v>
   <v>       0.00138889 </v>
   <v>       0.00138889 </v>
   <v>       0.00138889 </v>
   <v>       0.00138889 </v>
   <v>       0.00138889 </v>
   <v>       0.00138889 </v>
   <v>       0.00138889 </v>
   <v>       0.00138889 </v>
   <v>       0.00138889 </v>
   <v>       0.00138889 </v>
   <v>       0.00138889 </v>
   <v>       0.00138889 </v>
   <v>       0.00138889 </v>
   <v>       0.00138889 </v>
   <v>       0.00138889 </v>
   <v>       0.00138889 </v>
   <v>       0.00138889 </v>
   <v>       0.00138889 </v>
   <v>       0.00138889 </v>
   <v>       0.00138889 </v>
   <v>       0.00138889 </v>
   <v>       0.00138889 </v>
   <v>       0.00138889 </v>
   <v>       0.00138889 </v>
   <v>       0.00138889 </v>
   <v>       0.00138889 </v>
   <v>       0.00138889 </v>
   <v>       0.00138889 </v>
   <v>       0.00138889 </v>
   <v>       0.00138889 </v>
   <v>       0.00138889 </v>
   <v>       0.00138889 </v>
   <v>       0.00138889 </v>
   <v>       0.00138889 </v>
   <v>       0.00138889 </v>
   <v>       0.00138889 </v>
   <v>       0.00138889 </v>
   <v>       0.00138889 </v>
   <v>       0.00138889 </v>
   <v>       0.00138889 </v>
   <v>       0.00138889 </v>
   <v>       0.00138889 </v>
   <v>       0.00138889 </v>
   <v>       0.00138889 </v>
   <v>       0.00138889 </v>
   <v>       0.00138889 </v>
   <v>       0.00138889 </v>
   <v>       0.00138889 </v>
   <v>       0.00138889 </v>
   <v>       0.00138889 </v>
   <v>       0.00138889 </v>
   <v>       0.00138889 </v>
   <v>       0.00138889 </v>
   <v>       0.00138889 </v>
   <v>       0.00138889 </v>
   <v>       0.00138889 </v>
   <v>       0.00138889 </v>
   <v>       0.00138889 </v>
   <v>       0.00138889 </v>
   <v>       0.00138889 </v>
   <v>       0.00138889 </v>
   <v>       0.00138889 </v>
   <v>       0.00138889 </v>
   <v>       0.00138889 </v>
   <v>       0.00138889 </v>
   <v>       0.00138889 </v>
   <v>       0.00138889 </v>
   <v>       0.00138889 </v>
   <v>       0.00138889 </v>
   <v>       0.00138889 </v>
   <v>       0.00138889 </v>
   <v>       0.00138889 </v>
   <v>       0.00138889 </v>
   <v>       0.00138889 </v>
   <v>       0.00138889 </v>
   <v>       0.00138889 </v>
   <v>       0.00138889 </v>
   <v>       0.00138889 </v>
   <v>       0.00138889 </v>
   <v>       0.00138889 </v>
   <v>       0.00138889 </v>
   <v>       0.00138889 </v>
   <v>       0.00138889 </v>
   <v>       0.00138889 </v>
   <v>       0.00138889 </v>
   <v>       0.00138889 </v>
   <v>       0.00138889 </v>
   <v>       0.00138889 </v>
   <v>       0.00138889 </v>
   <v>       0.00138889 </v>
   <v>       0.00138889 </v>
   <v>       0.00138889 </v>
   <v>       0.00138889 </v>
   <v>       0.00138889 </v>
   <v>       0.00138889 </v>
   <v>       0.00138889 </v>
   <v>       0.00138889 </v>
   <v>       0.00138889 </v>
   <v>       0.00138889 </v>
   <v>       0.00138889 </v>
   <v>       0.00138889 </v>
   <v>       0.00138889 </v>
   <v>       0.00138889 </v>
   <v>       0.00138889 </v>
   <v>       0.00138889 </v>
   <v>       0.00138889 </v>
   <v>       0.00138889 </v>
   <v>       0.00138889 </v>
   <v>       0.00138889 </v>
   <v>       0.00138889 </v>
   <v>       0.00138889 </v>
   <v>       0.00138889 </v>
   <v>       0.00138889 </v>
   <v>       0.00138889 </v>
   <v>       0.00138889 </v>
   <v>       0.00138889 </v>
   <v>       0.00138889 </v>
   <v>       0.00138889 </v>
   <v>       0.00138889 </v>
   <v>       0.00138889 </v>
   <v>       0.00138889 </v>
   <v>       0.00138889 </v>
   <v>       0.00138889 </v>
   <v>       0.00138889 </v>
   <v>       0.00138889 </v>
   <v>       0.00138889 </v>
   <v>       0.00138889 </v>
   <v>       0.00138889 </v>
   <v>       0.00138889 </v>
   <v>       0.00138889 </v>
   <v>       0.00138889 </v>
   <v>       0.00138889 </v>
   <v>       0.00138889 </v>
   <v>       0.00138889 </v>
   <v>       0.00138889 </v>
   <v>       0.00138889 </v>
   <v>       0.00138889 </v>
   <v>       0.00138889 </v>
   <v>       0.00138889 </v>
   <v>       0.00138889 </v>
   <v>       0.00138889 </v>
   <v>       0.00138889 </v>
   <v>       0.00138889 </v>
   <v>       0.00138889 </v>
   <v>       0.00138889 </v>
   <v>       0.00138889 </v>
   <v>       0.00138889 </v>
   <v>       0.00138889 </v>
   <v>       0.00138889 </v>
   <v>       0.00138889 </v>
   <v>       0.00138889 </v>
   <v>       0.00138889 </v>
   <v>       0.00138889 </v>
   <v>       0.00138889 </v>
   <v>       0.00138889 </v>
   <v>       0.00138889 </v>
   <v>       0.00138889 </v>
   <v>       0.00138889 </v>
   <v>       0.00138889 </v>
   <v>       0.00138889 </v>
   <v>       0.00138889 </v>
   <v>       0.00138889 </v>
   <v>       0.00138889 </v>
   <v>       0.00138889 </v>
   <v>       0.00138889 </v>
   <v>       0.00138889 </v>
   <v>       0.00138889 </v>
   <v>       0.00138889 </v>
   <v>       0.00138889 </v>
   <v>       0.00138889 </v>
   <v>       0.00138889 </v>
   <v>       0.00138889 </v>
   <v>       0.00138889 </v>
   <v>       0.00138889 </v>
   <v>       0.00138889 </v>
   <v>       0.00138889 </v>
   <v>       0.00138889 </v>
   <v>       0.00138889 </v>
   <v>       0.00138889 </v>
   <v>       0.00138889 </v>
   <v>       0.00138889 </v>
   <v>       0.00138889 </v>
   <v>       0.00138889 </v>
   <v>       0.00138889 </v>
   <v>       0.00138889 </v>
   <v>       0.00138889 </v>
   <v>       0.00138889 </v>
   <v>       0.00138889 </v>
   <v>       0.00138889 </v>
   <v>       0.00138889 </v>
   <v>       0.00138889 </v>
   <v>       0.00138889 </v>
   <v>       0.00138889 </v>
   <v>       0.00138889 </v>
   <v>       0.00138889 </v>
   <v>       0.00138889 </v>
   <v>       0.00138889 </v>
   <v>       0.00138889 </v>
   <v>       0.00138889 </v>
   <v>       0.00138889 </v>
   <v>       0.00138889 </v>
   <v>       0.00138889 </v>
   <v>       0.00138889 </v>
   <v>       0.00138889 </v>
   <v>       0.00138889 </v>
   <v>       0.00138889 </v>
   <v>       0.00138889 </v>
   <v>       0.00138889 </v>
   <v>       0.00138889 </v>
   <v>       0.00138889 </v>
   <v>       0.00138889 </v>
   <v>       0.00138889 </v>
   <v>       0.00138889 </v>
   <v>       0.00138889 </v>
   <v>       0.00138889 </v>
   <v>       0.00138889 </v>
   <v>       0.00138889 </v>
   <v>       0.00138889 </v>
   <v>       0.00138889 </v>
   <v>       0.00138889 </v>
   <v>       0.00138889 </v>
   <v>       0.00138889 </v>
   <v>       0.00138889 </v>
   <v>       0.00138889 </v>
   <v>       0.00138889 </v>
   <v>       0.00138889 </v>
   <v>       0.00138889 </v>
   <v>       0.00138889 </v>
   <v>       0.00138889 </v>
   <v>       0.00138889 </v>
   <v>       0.00138889 </v>
   <v>       0.00138889 </v>
   <v>       0.00138889 </v>
   <v>       0.00138889 </v>
   <v>       0.00138889 </v>
   <v>       0.00138889 </v>
   <v>       0.00138889 </v>
   <v>       0.00138889 </v>
   <v>       0.00138889 </v>
   <v>       0.00138889 </v>
   <v>       0.00138889 </v>
   <v>       0.00138889 </v>
   <v>       0.00138889 </v>
   <v>       0.00138889 </v>
   <v>       0.00138889 </v>
   <v>       0.00138889 </v>
   <v>       0.00138889 </v>
   <v>       0.00138889 </v>
   <v>       0.00138889 </v>
   <v>       0.00138889 </v>
   <v>       0.00138889 </v>
   <v>       0.00138889 </v>
   <v>       0.00138889 </v>
   <v>       0.00138889 </v>
   <v>       0.00138889 </v>
   <v>       0.00138889 </v>
   <v>       0.00138889 </v>
   <v>       0.00138889 </v>
   <v>       0.00138889 </v>
   <v>       0.00138889 </v>
   <v>       0.00138889 </v>
   <v>       0.00138889 </v>
   <v>       0.00138889 </v>
   <v>       0.00138889 </v>
   <v>       0.00138889 </v>
   <v>       0.00138889 </v>
   <v>       0.00138889 </v>
   <v>       0.00138889 </v>
   <v>       0.00138889 </v>
   <v>       0.00138889 </v>
   <v>       0.00138889 </v>
   <v>       0.00138889 </v>
   <v>       0.00138889 </v>
   <v>       0.00138889 </v>
   <v>       0.00138889 </v>
   <v>       0.00138889 </v>
   <v>       0.00138889 </v>
   <v>       0.00138889 </v>
   <v>       0.00138889 </v>
   <v>       0.00138889 </v>
   <v>       0.00138889 </v>
   <v>       0.00138889 </v>
   <v>       0.00138889 </v>
   <v>       0.00138889 </v>
   <v>       0.00138889 </v>
   <v>       0.00138889 </v>
   <v>       0.00138889 </v>
   <v>       0.00138889 </v>
   <v>       0.00138889 </v>
   <v>       0.00138889 </v>
   <v>       0.00138889 </v>
   <v>       0.00138889 </v>
   <v>       0.00138889 </v>
   <v>       0.00138889 </v>
   <v>       0.00138889 </v>
   <v>       0.00138889 </v>
   <v>       0.00138889 </v>
   <v>       0.00138889 </v>
   <v>       0.00138889 </v>
   <v>       0.00138889 </v>
   <v>       0.00138889 </v>
   <v>       0.00138889 </v>
   <v>       0.00138889 </v>
   <v>       0.00138889 </v>
   <v>       0.00138889 </v>
   <v>       0.00138889 </v>
   <v>       0.00138889 </v>
   <v>       0.00138889 </v>
   <v>       0.00138889 </v>
   <v>       0.00138889 </v>
   <v>       0.00138889 </v>
   <v>       0.00138889 </v>
   <v>       0.00138889 </v>
   <v>       0.00138889 </v>
   <v>       0.00138889 </v>
   <v>       0.00138889 </v>
   <v>       0.00138889 </v>
   <v>       0.00138889 </v>
   <v>       0.00138889 </v>
   <v>       0.00138889 </v>
   <v>       0.00138889 </v>
   <v>       0.00138889 </v>
   <v>       0.00138889 </v>
   <v>       0.00138889 </v>
   <v>       0.00138889 </v>
   <v>       0.00138889 </v>
   <v>       0.00138889 </v>
   <v>       0.00138889 </v>
   <v>       0.00138889 </v>
   <v>       0.00138889 </v>
   <v>       0.00138889 </v>
   <v>       0.00138889 </v>
   <v>       0.00138889 </v>
   <v>       0.00138889 </v>
   <v>       0.00138889 </v>
   <v>       0.00138889 </v>
   <v>       0.00138889 </v>
   <v>       0.00138889 </v>
   <v>       0.00138889 </v>
   <v>       0.00138889 </v>
   <v>       0.00138889 </v>
   <v>       0.00138889 </v>
   <v>       0.00138889 </v>
   <v>       0.00138889 </v>
   <v>       0.00138889 </v>
   <v>       0.00138889 </v>
   <v>       0.00138889 </v>
   <v>       0.00138889 </v>
   <v>       0.00138889 </v>
   <v>       0.00138889 </v>
   <v>       0.00138889 </v>
   <v>       0.00138889 </v>
   <v>       0.00138889 </v>
   <v>       0.00138889 </v>
   <v>       0.00138889 </v>
   <v>       0.00138889 </v>
   <v>       0.00138889 </v>
   <v>       0.00138889 </v>
   <v>       0.00138889 </v>
   <v>       0.00138889 </v>
   <v>       0.00138889 </v>
   <v>       0.00138889 </v>
   <v>       0.00138889 </v>
   <v>       0.00138889 </v>
   <v>       0.00138889 </v>
   <v>       0.00138889 </v>
   <v>       0.00138889 </v>
   <v>       0.00138889 </v>
   <v>       0.00138889 </v>
   <v>       0.00138889 </v>
   <v>       0.00138889 </v>
   <v>       0.00138889 </v>
   <v>       0.00138889 </v>
   <v>       0.00138889 </v>
   <v>       0.00138889 </v>
   <v>       0.00138889 </v>
   <v>       0.00138889 </v>
   <v>       0.00138889 </v>
   <v>       0.00138889 </v>
   <v>       0.00138889 </v>
   <v>       0.00138889 </v>
   <v>       0.00138889 </v>
   <v>       0.00138889 </v>
   <v>       0.00138889 </v>
   <v>       0.00138889 </v>
   <v>       0.00138889 </v>
   <v>       0.00138889 </v>
   <v>       0.00138889 </v>
   <v>       0.00138889 </v>
   <v>       0.00138889 </v>
   <v>       0.00138889 </v>
   <v>       0.00138889 </v>
   <v>       0.00138889 </v>
   <v>       0.00138889 </v>
   <v>       0.00138889 </v>
   <v>       0.00138889 </v>
   <v>       0.00138889 </v>
   <v>       0.00138889 </v>
   <v>       0.00138889 </v>
   <v>       0.00138889 </v>
   <v>       0.00138889 </v>
   <v>       0.00138889 </v>
   <v>       0.00138889 </v>
   <v>       0.00138889 </v>
   <v>       0.00138889 </v>
   <v>       0.00138889 </v>
   <v>       0.00138889 </v>
   <v>       0.00138889 </v>
   <v>       0.00138889 </v>
   <v>       0.00138889 </v>
   <v>       0.00138889 </v>
   <v>       0.00138889 </v>
   <v>       0.00138889 </v>
   <v>       0.00138889 </v>
   <v>       0.00138889 </v>
   <v>       0.00138889 </v>
   <v>       0.00138889 </v>
   <v>       0.00138889 </v>
   <v>       0.00138889 </v>
   <v>       0.00138889 </v>
   <v>       0.00138889 </v>
   <v>       0.00138889 </v>
   <v>       0.00138889 </v>
   <v>       0.00138889 </v>
   <v>       0.00138889 </v>
   <v>       0.00138889 </v>
   <v>       0.00138889 </v>
   <v>       0.00138889 </v>
   <v>       0.00138889 </v>
   <v>       0.00138889 </v>
   <v>       0.00138889 </v>
   <v>       0.00138889 </v>
   <v>       0.00138889 </v>
   <v>       0.00138889 </v>
   <v>       0.00138889 </v>
   <v>       0.00138889 </v>
   <v>       0.00138889 </v>
   <v>       0.00138889 </v>
   <v>       0.00138889 </v>
   <v>       0.00138889 </v>
   <v>       0.00138889 </v>
   <v>       0.00138889 </v>
   <v>       0.00138889 </v>
   <v>       0.00138889 </v>
   <v>       0.00138889 </v>
   <v>       0.00138889 </v>
   <v>       0.00138889 </v>
   <v>       0.00138889 </v>
   <v>       0.00138889 </v>
   <v>       0.00138889 </v>
   <v>       0.00138889 </v>
   <v>       0.00138889 </v>
   <v>       0.00138889 </v>
   <v>       0.00138889 </v>
   <v>       0.00138889 </v>
   <v>       0.00138889 </v>
   <v>       0.00138889 </v>
   <v>       0.00138889 </v>
   <v>       0.00138889 </v>
   <v>       0.00138889 </v>
   <v>       0.00138889 </v>
   <v>       0.00138889 </v>
   <v>       0.00138889 </v>
   <v>       0.00138889 </v>
   <v>       0.00138889 </v>
   <v>       0.00138889 </v>
   <v>       0.00138889 </v>
   <v>       0.00138889 </v>
   <v>       0.00138889 </v>
   <v>       0.00138889 </v>
   <v>       0.00138889 </v>
   <v>       0.00138889 </v>
   <v>       0.00138889 </v>
   <v>       0.00138889 </v>
   <v>       0.00138889 </v>
   <v>       0.00138889 </v>
   <v>       0.00138889 </v>
   <v>       0.00138889 </v>
   <v>       0.00138889 </v>
   <v>       0.00138889 </v>
   <v>       0.00138889 </v>
   <v>       0.00138889 </v>
   <v>       0.00138889 </v>
   <v>       0.00138889 </v>
   <v>       0.00138889 </v>
   <v>       0.00138889 </v>
   <v>       0.00138889 </v>
   <v>       0.00138889 </v>
   <v>       0.00138889 </v>
   <v>       0.00138889 </v>
   <v>       0.00138889 </v>
   <v>       0.00138889 </v>
   <v>       0.00138889 </v>
   <v>       0.00138889 </v>
   <v>       0.00138889 </v>
   <v>       0.00138889 </v>
   <v>       0.00138889 </v>
   <v>       0.00138889 </v>
   <v>       0.00138889 </v>
   <v>       0.00138889 </v>
   <v>       0.00138889 </v>
   <v>       0.00138889 </v>
   <v>       0.00138889 </v>
   <v>       0.00138889 </v>
   <v>       0.00138889 </v>
   <v>       0.00138889 </v>
   <v>       0.00138889 </v>
   <v>       0.00138889 </v>
   <v>       0.00138889 </v>
   <v>       0.00138889 </v>
   <v>       0.00138889 </v>
   <v>       0.00138889 </v>
   <v>       0.00138889 </v>
   <v>       0.00138889 </v>
   <v>       0.00138889 </v>
   <v>       0.00138889 </v>
   <v>       0.00138889 </v>
   <v>       0.00138889 </v>
   <v>       0.00138889 </v>
   <v>       0.00138889 </v>
   <v>       0.00138889 </v>
   <v>       0.00138889 </v>
   <v>       0.00138889 </v>
   <v>       0.00138889 </v>
   <v>       0.00138889 </v>
   <v>       0.00138889 </v>
   <v>       0.00138889 </v>
   <v>       0.00138889 </v>
   <v>       0.00138889 </v>
   <v>       0.00138889 </v>
   <v>       0.00138889 </v>
   <v>       0.00069444 </v>
   <v>       0.00138889 </v>
   <v>       0.00138889 </v>
   <v>       0.00138889 </v>
   <v>       0.00138889 </v>
   <v>       0.00138889 </v>
   <v>       0.00069444 </v>
   <v>       0.00138889 </v>
   <v>       0.00138889 </v>
   <v>       0.00138889 </v>
   <v>       0.00138889 </v>
   <v>       0.00138889 </v>
   <v>       0.00138889 </v>
   <v>       0.00138889 </v>
   <v>       0.00138889 </v>
   <v>       0.00138889 </v>
   <v>       0.00138889 </v>
   <v>       0.00138889 </v>
   <v>       0.00138889 </v>
   <v>       0.00138889 </v>
   <v>       0.00138889 </v>
   <v>       0.00138889 </v>
   <v>       0.00138889 </v>
   <v>       0.00138889 </v>
   <v>       0.00138889 </v>
   <v>       0.00138889 </v>
   <v>       0.00138889 </v>
   <v>       0.00138889 </v>
   <v>       0.00138889 </v>
   <v>       0.00138889 </v>
   <v>       0.00138889 </v>
   <v>       0.00138889 </v>
   <v>       0.00138889 </v>
   <v>       0.00138889 </v>
   <v>       0.00138889 </v>
   <v>       0.00138889 </v>
   <v>       0.00138889 </v>
   <v>       0.00138889 </v>
   <v>       0.00138889 </v>
   <v>       0.00138889 </v>
   <v>       0.00138889 </v>
   <v>       0.00138889 </v>
   <v>       0.00138889 </v>
   <v>       0.00138889 </v>
   <v>       0.00138889 </v>
   <v>       0.00138889 </v>
   <v>       0.00138889 </v>
   <v>       0.00138889 </v>
   <v>       0.00138889 </v>
   <v>       0.00138889 </v>
   <v>       0.00138889 </v>
   <v>       0.00138889 </v>
   <v>       0.00138889 </v>
   <v>       0.00138889 </v>
   <v>       0.00138889 </v>
   <v>       0.00138889 </v>
   <v>       0.00138889 </v>
   <v>       0.00138889 </v>
   <v>       0.00138889 </v>
   <v>       0.00138889 </v>
   <v>       0.00138889 </v>
   <v>       0.00138889 </v>
   <v>       0.00138889 </v>
   <v>       0.00138889 </v>
   <v>       0.00138889 </v>
   <v>       0.00138889 </v>
   <v>       0.00138889 </v>
   <v>       0.00069444 </v>
   <v>       0.00138889 </v>
   <v>       0.00138889 </v>
   <v>       0.00138889 </v>
   <v>       0.00138889 </v>
   <v>       0.00138889 </v>
   <v>       0.00069444 </v>
  </varray>
 </kpoints>
 <parameters>
  <separator name="general" >
   <i type="string" name="SYSTEM">matgen-relax</i>
   <i type="logical" name="LCOMPAT"> F  </i>
  </separator>
  <separator name="electronic" >
   <i type="string" name="PREC">accura</i>
   <i name="ENMAX">    520.00000000</i>
   <i name="ENAUG">    322.06900000</i>
   <i name="EDIFF">      0.00010000</i>
   <i type="int" name="IALGO">    38</i>
   <i type="int" name="IWAVPR">    11</i>
   <i type="int" name="NBANDS">    24</i>
   <i name="NELECT">     32.00000000</i>
   <i type="int" name="TURBO">     0</i>
   <i type="int" name="IRESTART">     0</i>
   <i type="int" name="NREBOOT">     0</i>
   <i type="int" name="NMIN">     0</i>
   <i name="EREF">      0.00000000</i>
   <separator name="electronic smearing" >
    <i type="int" name="ISMEAR">     0</i>
    <i name="SIGMA">      0.05000000</i>
    <i name="KSPACING">      0.50000000</i>
    <i type="logical" name="KGAMMA"> T  </i>
   </separator>
   <separator name="electronic projectors" >
    <i type="logical" name="LREAL"> T  </i>
    <v name="ROPT">     -0.00025000</v>
    <i type="int" name="LMAXPAW">  -100</i>
    <i type="int" name="LMAXMIX">     2</i>
    <i type="logical" name="NLSPLINE"> F  </i>
   </separator>
   <separator name="electronic startup" >
    <i type="int" name="ISTART">     0</i>
    <i type="int" name="ICHARG">     2</i>
    <i type="int" name="INIWAV">     1</i>
   </separator>
   <separator name="electronic spin" >
    <i type="int" name="ISPIN">     1</i>
    <i type="logical" name="LNONCOLLINEAR"> F  </i>
    <v name="MAGMOM">      1.00000000      1.00000000      1.00000000      1.00000000      1.00000000      1.00000000      1.00000000      1.00000000</v>
    <i name="NUPDOWN">     -1.00000000</i>
    <i type="logical" name="LSORBIT"> F  </i>
    <v name="SAXIS">      0.00000000      0.00000000      1.00000000</v>
    <i type="logical" name="LSPIRAL"> F  </i>
    <v name="QSPIRAL">      0.00000000      0.00000000      0.00000000</v>
    <i type="logical" name="LZEROZ"> F  </i>
   </separator>
   <separator name="electronic exchange-correlation" >
    <i type="logical" name="LASPH"> F  </i>
    <i type="logical" name="LMETAGGA"> F  </i>
   </separator>
   <separator name="electronic convergence" >
    <i type="int" name="NELM">    60</i>
    <i type="int" name="NELMDL">    -5</i>
    <i type="int" name="NELMIN">     6</i>
    <i name="ENINI">    520.00000000</i>
    <separator name="electronic convergence detail" >
     <i type="logical" name="LDIAG"> T  </i>
     <i type="logical" name="LSUBROT"> F  </i>
     <i name="WEIMIN">      0.00100000</i>
     <i name="EBREAK">      0.00000104</i>
     <i name="DEPER">      0.30000000</i>
     <i type="int" name="NRMM">     4</i>
     <i name="TIME">      0.40000000</i>
    </separator>
   </separator>
   <separator name="electronic mixer" >
    <i name="AMIX">      0.10000000</i>
    <i name="BMIX">      1.20000000</i>
    <i name="AMIN">      0.10000000</i>
    <i name="AMIX_MAG">      0.40000000</i>
    <i name="BMIX_MAG">      1.20000000</i>
    <separator name="electronic mixer details" >
     <i type="int" name="IMIX">     4</i>
     <i type="logical" name="MIXFIRST"> F  </i>
     <i type="int" name="MAXMIX">   -45</i>
     <i name="WC">    100.00000000</i>
     <i type="int" name="INIMIX">     1</i>
     <i type="int" name="MIXPRE">     1</i>
     <i type="int" name="MREMOVE">     5</i>
    </separator>
   </separator>
   <separator name="electronic dipolcorrection" >
    <i type="logical" name="LDIPOL"> F  </i>
    <i type="logical" name="LMONO"> F  </i>
    <i type="int" name="IDIPOL">     0</i>
    <i name="EPSILON">      1.00000000</i>
    <v name="DIPOL">   -100.00000000   -100.00000000   -100.00000000</v>
    <i name="EFIELD">      0.00000000</i>
   </separator>
  </separator>
  <separator name="grids" >
   <i type="int" name="NGX">    40</i>
   <i type="int" name="NGY">    40</i>
   <i type="int" name="NGZ">    40</i>
   <i type="int" name="NGXF">    80</i>
   <i type="int" name="NGYF">    80</i>
   <i type="int" name="NGZF">    80</i>
   <i type="logical" name="ADDGRID"> T  </i>
  </separator>
  <separator name="ionic" >
   <i type="int" name="NSW">    40</i>
   <i type="int" name="IBRION">     2</i>
   <i type="int" name="ISIF">     3</i>
   <i name="PSTRESS">      0.00000000</i>
   <i name="EDIFFG">     -0.00100000</i>
   <i type="int" name="NFREE">     1</i>
   <i name="POTIM">      0.05000000</i>
   <i name="SMASS">     -3.00000000</i>
   <i name="SCALEE">      1.00000000</i>
  </separator>
  <separator name="ionic md" >
   <i name="TEBEG">      0.00010000</i>
   <i name="TEEND">      0.00010000</i>
   <i type="int" name="NBLOCK">     1</i>
   <i type="int" name="KBLOCK">    40</i>
   <i type="int" name="NPACO">   256</i>
   <i name="APACO">     16.00000000</i>
  </separator>
  <separator name="symmetry" >
   <i type="int" name="ISYM">     0</i>
   <i name="SYMPREC">      0.00000001</i>
  </separator>
  <separator name="dos" >
   <i type="logical" name="LORBIT"> F  </i>
   <v name="RWIGS">     -1.00000000</v>
   <i type="int" name="NEDOS">   301</i>
   <i name="EMIN">     10.00000000</i>
   <i name="EMAX">    -10.00000000</i>
   <i name="EFERMI">      0.00000000</i>
  </separator>
  <separator name="writing" >
   <i type="int" name="NWRITE">     2</i>
   <i type="logical" name="LWAVE"> F  </i>
   <i type="logical" name="LCHARG"> F  </i>
   <i type="logical" name="LPARD"> F  </i>
   <i type="logical" name="LVTOT"> F  </i>
   <i type="logical" name="LVHAR"> F  </i>
   <i type="logical" name="LELF"> F  </i>
   <i type="logical" name="LOPTICS"> F  </i>
   <v name="STM">      0.00000000      0.00000000      0.00000000      0.00000000      0.00000000      0.00000000      0.00000000</v>
  </separator>
  <separator name="performance" >
   <i type="int" name="NPAR">     8</i>
   <i type="int" name="NSIM">     4</i>
   <i type="int" name="NBLK">    -1</i>
   <i type="logical" name="LPLANE"> T  </i>
   <i type="logical" name="LSCALAPACK"> T  </i>
   <i type="logical" name="LSCAAWARE"> F  </i>
   <i type="logical" name="LSCALU"> F  </i>
   <i type="logical" name="LASYNC"> F  </i>
   <i type="logical" name="LORBITALREAL"> F  </i>
  </separator>
  <separator name="miscellaneous" >
   <i type="int" name="IDIOT">     3</i>
   <i type="logical" name="LMUSIC"> F  </i>
   <v name="POMASS">     28.08500000</v>
   <v name="DARWINR">      0.00000000</v>
   <v name="DARWINV">      1.00000000</v>
   <i type="logical" name="LCORR"> T  </i>
  </separator>
  <i type="logical" name="GGA_COMPAT"> T  </i>
  <i type="logical" name="LBERRY"> F  </i>
  <i type="int" name="ICORELEVEL">     0</i>
  <i type="logical" name="LDAU"> F  </i>
  <i type="int" name="I_CONSTRAINED_M">     0</i>
  <separator name="electronic exchange-correlation" >
   <i type="string" name="GGA">--</i>
   <i type="int" name="VOSKOWN">     0</i>
   <i type="logical" name="LHFCALC"> F  </i>
   <i type="string" name="PRECFOCK"></i>
   <i type="logical" name="LSYMGRAD"> F  </i>
   <i type="logical" name="LHFONE"> F  </i>
   <i type="logical" name="LRHFCALC"> F  </i>
   <i type="logical" name="LTHOMAS"> F  </i>
   <i type="logical" name="LMODELHF"> F  </i>
   <i name="ENCUT4O">     -1.00000000</i>
   <i type="int" name="EXXOEP">     0</i>
   <i type="int" name="FOURORBIT">     0</i>
   <i name="AEXX">      0.00000000</i>
   <i name="HFALPHA">      0.00000000</i>
   <i name="MCALPHA">      0.00000000</i>
   <i name="ALDAX">      1.00000000</i>
   <i name="AGGAX">      1.00000000</i>
   <i name="ALDAC">      1.00000000</i>
   <i name="AGGAC">      1.00000000</i>
   <i type="int" name="NKREDX">     1</i>
   <i type="int" name="NKREDY">     1</i>
   <i type="int" name="NKREDZ">     1</i>
   <i type="logical" name="SHIFTRED"> F  </i>
   <i type="logical" name="ODDONLY"> F  </i>
   <i type="logical" name="EVENONLY"> F  </i>
   <i type="int" name="LMAXFOCK">     0</i>
   <i type="int" name="NMAXFOCKAE">     0</i>
   <i type="logical" name="LFOCKAEDFT"> F  </i>
   <i name="HFSCREEN">      0.00000000</i>
   <i name="HFSCREENC">      0.00000000</i>
   <i type="int" name="NBANDSGWLOW">     0</i>
  </separator>
  <separator name="vdW DFT" >
   <i type="logical" name="LUSE_VDW"> F  </i>
   <i name="Zab_VDW">     -0.84910000</i>
   <i name="PARAM1">      0.12340000</i>
   <i name="PARAM2">      1.00000000</i>
   <i name="PARAM3">      0.00000000</i>
  </separator>
  <separator name="model GW" >
   <i type="int" name="MODEL_GW">     0</i>
   <i name="MODEL_EPS0">      9.18388872</i>
   <i name="MODEL_ALPHA">      1.00000000</i>
  </separator>
  <separator name="linear response parameters" >
   <i type="logical" name="LEPSILON"> F  </i>
   <i type="logical" name="LRPA"> F  </i>
   <i type="logical" name="LNABLA"> F  </i>
   <i type="logical" name="LVEL"> F  </i>
   <i type="int" name="KINTER">     0</i>
   <i name="CSHIFT">      0.10000000</i>
   <i name="OMEGAMAX">     -1.00000000</i>
   <i name="DEG_THRESHOLD">      0.00200000</i>
  </separator>
  <separator name="orbital magnetization" >
   <i type="logical" name="NUCIND"> F  </i>
   <v name="MAGPOS">      0.00000000      0.00000000      0.00000000</v>
   <i type="logical" name="LNICSALL"> T  </i>
   <i type="logical" name="ORBITALMAG"> F  </i>
   <i type="logical" name="LMAGBLOCH"> F  </i>
   <i type="logical" name="LCHIMAG"> F  </i>
   <i type="logical" name="LGAUGE"> T  </i>
   <i type="int" name="MAGATOM">     0</i>
   <v name="MAGDIPOL">      0.00000000      0.00000000      0.00000000</v>
   <v name="AVECCONST">      0.00000000      0.00000000      0.00000000</v>
  </separator>
  <separator name="response functions" >
   <i type="logical" name="LADDER"> F  </i>
   <i type="logical" name="LFXC"> F  </i>
   <i type="logical" name="LHARTREE"> T  </i>
   <i type="int" name="IBSE">     0</i>
   <v type="int" name="KPOINT">    -1     0     0     0</v>
   <i type="logical" name="LTCTE"> F  </i>
   <i type="logical" name="LTETE"> F  </i>
   <i type="logical" name="LTRIPLET"> F  </i>
   <i type="logical" name="LFXCEPS"> F  </i>
   <i type="logical" name="LFXHEG"> F  </i>
   <i type="int" name="NATURALO">     0</i>
   <i type="logical" name="L2ORDER"> F  </i>
   <i type="logical" name="LUSEW"> F  </i>
   <i name="ENCUTGW">     -2.00000000</i>
   <i name="ENCUTGWSOFT">     -2.00000000</i>
   <i name="ENCUTLF">     -1.00000000</i>
   <i type="int" name="LMAXMP2">    -1</i>
   <i name="SCISSOR">      0.00000000</i>
   <i type="int" name="NOMEGA">     0</i>
   <i type="int" name="NOMEGAR">     0</i>
   <i type="int" name="NBANDSGW">    -1</i>
   <i type="int" name="NBANDSO">    -1</i>
   <i type="int" name="NBANDSV">    -1</i>
   <i type="int" name="NELM">    60</i>
   <i type="int" name="NELMHF">     1</i>
   <i type="int" name="DIM">     3</i>
   <i type="int" name="ANTIRES">     0</i>
   <i name="OMEGAMAX">    -30.00000000</i>
   <i name="OMEGAMIN">    -30.00000000</i>
   <i name="OMEGATL">   -200.00000000</i>
   <i type="int" name="OMEGAGRID">     0</i>
   <i name="CSHIFT">     -0.10000000</i>
[...]
       <r>   -0.4407    1.0000 </r>
       <r>   -0.4407    1.0000 </r>
       <r>   -0.0291    1.0000 </r>
       <r>   -0.0291    1.0000 </r>
       <r>    4.7203    1.0000 </r>
       <r>    4.7203    1.0000 </r>
       <r>    5.9039    1.0000 </r>
       <r>    5.9039    1.0000 </r>
       <r>    7.4085    1.0000 </r>
       <r>    7.4085    1.0000 </r>
       <r>    7.5913    1.0000 </r>
       <r>    7.5913    1.0000 </r>
       <r>    8.6246    1.0000 </r>
       <r>    8.6246    1.0000 </r>
       <r>    9.3512    0.0000 </r>
       <r>    9.3512    0.0000 </r>
       <r>    9.8792    0.0000 </r>
       <r>    9.8792    0.0000 </r>
       <r>   11.4657    0.0000 </r>
       <r>   11.4657    0.0000 </r>
       <r>   13.5344    0.0000 </r>
       <r>   13.5344    0.0000 </r>
      </set>
      <set comment="kpoint 722">
       <r>   -2.0772    1.0000 </r>
       <r>   -2.0772    1.0000 </r>
       <r>   -0.9574    1.0000 </r>
       <r>   -0.9574    1.0000 </r>
       <r>    0.6183    1.0000 </r>
       <r>    0.6183    1.0000 </r>
       <r>    4.8036    1.0000 </r>
       <r>    4.8036    1.0000 </r>
       <r>    5.8297    1.0000 </r>
       <r>    5.8297    1.0000 </r>
       <r>    7.4325    1.0000 </r>
       <r>    7.4325    1.0000 </r>
       <r>    7.6600    1.0000 </r>
       <r>    7.6600    1.0000 </r>
       <r>    8.5023    1.0000 </r>
       <r>    8.5023    1.0000 </r>
       <r>    9.2419    0.0000 </r>
       <r>    9.2419    0.0000 </r>
       <r>   10.1541    0.0000 </r>
       <r>   10.1541    0.0000 </r>
       <r>   11.2508    0.0000 </r>
       <r>   11.2508    0.0000 </r>
       <r>   12.8200    0.0000 </r>
       <r>   12.8200    0.0000 </r>
      </set>
      <set comment="kpoint 723">
       <r>   -1.9776    1.0000 </r>
       <r>   -1.9776    1.0000 </r>
       <r>   -1.3650    1.0000 </r>
       <r>   -1.3650    1.0000 </r>
       <r>    1.2753    1.0000 </r>
       <r>    1.2753    1.0000 </r>
       <r>    3.8713    1.0000 </r>
       <r>    3.8713    1.0000 </r>
       <r>    6.9212    1.0000 </r>
       <r>    6.9212    1.0000 </r>
       <r>    7.5155    1.0000 </r>
       <r>    7.5155    1.0000 </r>
       <r>    7.7233    1.0000 </r>
       <r>    7.7233    1.0000 </r>
       <r>    8.2513    1.0000 </r>
       <r>    8.2513    1.0000 </r>
       <r>    8.9128    1.0000 </r>
       <r>    8.9128    1.0000 </r>
       <r>   10.5491    0.0000 </r>
       <r>   10.5491    0.0000 </r>
       <r>   11.2929    0.0000 </r>
       <r>   11.2929    0.0000 </r>
       <r>   12.0631    0.0000 </r>
       <r>   12.0631    0.0000 </r>
      </set>
      <set comment="kpoint 724">
       <r>   -1.8652    1.0000 </r>
       <r>   -1.8652    1.0000 </r>
       <r>   -1.5802    1.0000 </r>
       <r>   -1.5802    1.0000 </r>
       <r>    1.6434    1.0000 </r>
       <r>    1.6434    1.0000 </r>
       <r>    3.4109    1.0000 </r>
       <r>    3.4109    1.0000 </r>
       <r>    7.5487    1.0000 </r>
       <r>    7.5487    1.0000 </r>
       <r>    7.6093    1.0000 </r>
       <r>    7.6093    1.0000 </r>
       <r>    7.8310    1.0000 </r>
       <r>    7.8310    1.0000 </r>
       <r>    8.1349    1.0000 </r>
       <r>    8.1349    1.0000 </r>
       <r>    8.4193    1.0000 </r>
       <r>    8.4193    1.0000 </r>
       <r>   11.0235    0.0000 </r>
       <r>   11.0235    0.0000 </r>
       <r>   11.0649    0.0000 </r>
       <r>   11.0649    0.0000 </r>
       <r>   11.7845    0.0000 </r>
       <r>   11.7845    0.0000 </r>
      </set>
     </set>
    </set>
   </array>
  </eigenvalues>
  <separator name="orbital magnetization" >
   <v name="MAGDIPOLOUT">      0.00000000      0.00000000      0.00000000</v>
  </separator>
  <dos>
   <i name="efermi">      9.10185404 </i>
   <total>
    <array>
     <dimension dim="1">gridpoints</dimension>
     <dimension dim="2">spin</dimension>
     <field>energy</field>
     <field>total</field>
     <field>integrated</field>
     <set>
      <set comment="spin 1">
       <r>    -5.6112     0.0000     0.0000 </r>
       <r>    -5.5381     0.0000     0.0000 </r>
       <r>    -5.4651     0.0000     0.0000 </r>
       <r>    -5.3921     0.0000     0.0000 </r>
       <r>    -5.3190     0.0000     0.0000 </r>
       <r>    -5.2460     0.0000     0.0000 </r>
       <r>    -5.1730     0.0000     0.0000 </r>
       <r>    -5.0999     0.0000     0.0000 </r>
       <r>    -5.0269     0.0000     0.0000 </r>
       <r>    -4.9539     0.0000     0.0000 </r>
       <r>    -4.8808     0.0000     0.0000 </r>
       <r>    -4.8078     0.0000     0.0000 </r>
       <r>    -4.7348     0.0000     0.0000 </r>
       <r>    -4.6617     0.0023     0.0002 </r>
       <r>    -4.5887     0.0549     0.0042 </r>
       <r>    -4.5156     0.2229     0.0205 </r>
       <r>    -4.4426     0.2864     0.0414 </r>
       <r>    -4.3696     0.4842     0.0767 </r>
       <r>    -4.2965     0.3867     0.1050 </r>
       <r>    -4.2235     0.5849     0.1477 </r>
       <r>    -4.1505     0.6052     0.1919 </r>
       <r>    -4.0774     0.5721     0.2337 </r>
       <r>    -4.0044     0.7125     0.2857 </r>
       <r>    -3.9314     0.8202     0.3456 </r>
       <r>    -3.8583     0.6162     0.3906 </r>
       <r>    -3.7853     0.8255     0.4509 </r>
       <r>    -3.7123     0.9009     0.5167 </r>
       <r>    -3.6392     0.8746     0.5806 </r>
       <r>    -3.5662     0.8662     0.6438 </r>
       <r>    -3.4932     1.0148     0.7180 </r>
       <r>    -3.4201     1.0796     0.7968 </r>
       <r>    -3.3471     0.6919     0.8473 </r>
       <r>    -3.2741     1.0665     0.9252 </r>
       <r>    -3.2010     1.2466     1.0163 </r>
       <r>    -3.1280     1.2325     1.1063 </r>
       <r>    -3.0550     1.1454     1.1899 </r>
       <r>    -2.9819     1.0764     1.2685 </r>
       <r>    -2.9089     0.9439     1.3375 </r>
       <r>    -2.8359     1.2158     1.4263 </r>
       <r>    -2.7628     1.2953     1.5209 </r>
       <r>    -2.6898     1.3241     1.6176 </r>
       <r>    -2.6168     1.3049     1.7129 </r>
       <r>    -2.5437     1.0825     1.7919 </r>
       <r>    -2.4707     1.4378     1.8969 </r>
       <r>    -2.3977     1.5076     2.0071 </r>
       <r>    -2.3246     1.1847     2.0936 </r>
       <r>    -2.2516     1.2117     2.1821 </r>
       <r>    -2.1786     1.4297     2.2865 </r>
       <r>    -2.1055     1.5120     2.3969 </r>
       <r>    -2.0325     1.4538     2.5031 </r>
       <r>    -1.9595     1.6928     2.6267 </r>
       <r>    -1.8864     1.4187     2.7303 </r>
       <r>    -1.8134     1.6268     2.8491 </r>
       <r>    -1.7404     1.5486     2.9622 </r>
       <r>    -1.6673     1.2404     3.0528 </r>
       <r>    -1.5943     1.5946     3.1693 </r>
       <r>    -1.5213     1.8347     3.3033 </r>
       <r>    -1.4482     1.6742     3.4255 </r>
       <r>    -1.3752     1.5319     3.5374 </r>
       <r>    -1.3022     1.3570     3.6365 </r>
       <r>    -1.2291     2.1105     3.7907 </r>
       <r>    -1.1561     1.9479     3.9329 </r>
       <r>    -1.0831     1.5157     4.0436 </r>
       <r>    -1.0100     1.6093     4.1612 </r>
       <r>    -0.9370     1.2980     4.2560 </r>
       <r>    -0.8640     2.1838     4.4155 </r>
       <r>    -0.7909     2.4670     4.5956 </r>
       <r>    -0.7179     1.6435     4.7157 </r>
       <r>    -0.6449     1.1903     4.8026 </r>
       <r>    -0.5718     1.7430     4.9299 </r>
       <r>    -0.4988     2.0104     5.0767 </r>
       <r>    -0.4258     2.6212     5.2682 </r>
       <r>    -0.3527     1.7017     5.3924 </r>
       <r>    -0.2797     1.5873     5.5084 </r>
       <r>    -0.2067     2.3403     5.6793 </r>
       <r>    -0.1336     1.8417     5.8138 </r>
       <r>    -0.0606     2.0929     5.9666 </r>
       <r>     0.0124     2.2101     6.1281 </r>
       <r>     0.0855     1.9105     6.2676 </r>
       <r>     0.1585     2.2258     6.4302 </r>
       <r>     0.2315     2.1410     6.5865 </r>
       <r>     0.3046     1.8739     6.7234 </r>
       <r>     0.3776     2.0026     6.8696 </r>
       <r>     0.4506     2.2689     7.0353 </r>
       <r>     0.5237     2.4870     7.2170 </r>
       <r>     0.5967     2.1459     7.3737 </r>
       <r>     0.6698     2.3866     7.5480 </r>
       <r>     0.7428     2.6514     7.7416 </r>
       <r>     0.8158     2.4128     7.9178 </r>
       <r>     0.8889     2.3676     8.0908 </r>
       <r>     0.9619     2.2629     8.2560 </r>
       <r>     1.0349     2.1705     8.4146 </r>
       <r>     1.1080     2.1679     8.5729 </r>
       <r>     1.1810     2.0393     8.7218 </r>
       <r>     1.2540     1.9632     8.8652 </r>
       <r>     1.3271     2.6360     9.0577 </r>
       <r>     1.4001     2.8849     9.2684 </r>
       <r>     1.4731     2.6212     9.4599 </r>
       <r>     1.5462     2.6443     9.6530 </r>
       <r>     1.6192     2.8106     9.8582 </r>
       <r>     1.6922     2.4703    10.0387 </r>
       <r>     1.7653     2.2710    10.2045 </r>
       <r>     1.8383     2.5476    10.3906 </r>
       <r>     1.9113     1.8728    10.5274 </r>
       <r>     1.9844     2.0026    10.6736 </r>
       <r>     2.0574     1.9438    10.8156 </r>
       <r>     2.1304     1.5965    10.9322 </r>
       <r>     2.2035     1.9140    11.0720 </r>
       <r>     2.2765     2.6587    11.2661 </r>
       <r>     2.3495     2.3161    11.4353 </r>
       <r>     2.4226     1.6065    11.5526 </r>
       <r>     2.4956     1.6150    11.6706 </r>
       <r>     2.5686     1.8476    11.8055 </r>
       <r>     2.6417     2.5993    11.9953 </r>
       <r>     2.7147     2.8418    12.2029 </r>
       <r>     2.7877     2.4920    12.3849 </r>
       <r>     2.8608     2.3323    12.5552 </r>
       <r>     2.9338     2.6616    12.7496 </r>
       <r>     3.0068     2.5587    12.9365 </r>
       <r>     3.0799     2.2520    13.1010 </r>
       <r>     3.1529     2.2989    13.2689 </r>
       <r>     3.2259     2.7429    13.4692 </r>
       <r>     3.2990     2.6248    13.6609 </r>
       <r>     3.3720     2.0149    13.8080 </r>
       <r>     3.4450     2.2903    13.9753 </r>
       <r>     3.5181     2.4246    14.1524 </r>
       <r>     3.5911     2.2814    14.3190 </r>
       <r>     3.6641     2.4163    14.4955 </r>
       <r>     3.7372     2.3417    14.6665 </r>
       <r>     3.8102     2.7978    14.8708 </r>
       <r>     3.8832     2.6829    15.0668 </r>
       <r>     3.9563     2.8564    15.2754 </r>
       <r>     4.0293     2.6188    15.4666 </r>
       <r>     4.1023     2.7199    15.6653 </r>
       <r>     4.1754     3.0314    15.8867 </r>
       <r>     4.2484     2.6440    16.0798 </r>
       <r>     4.3214     2.8059    16.2847 </r>
       <r>     4.3945     2.6749    16.4801 </r>
       <r>     4.4675     2.5307    16.6649 </r>
       <r>     4.5405     2.9827    16.8827 </r>
       <r>     4.6136     2.8017    17.0873 </r>
       <r>     4.6866     2.9913    17.3058 </r>
       <r>     4.7596     3.0832    17.5310 </r>
       <r>     4.8327     3.2395    17.7676 </r>
       <r>     4.9057     2.6475    17.9609 </r>
       <r>     4.9787     3.3623    18.2065 </r>
       <r>     5.0518     3.3844    18.4537 </r>
       <r>     5.1248     2.8343    18.6607 </r>
       <r>     5.1978     2.4356    18.8385 </r>
       <r>     5.2709     2.8066    19.0435 </r>
       <r>     5.3439     3.2457    19.2806 </r>
       <r>     5.4169     3.4318    19.5312 </r>
       <r>     5.4900     3.0337    19.7528 </r>
       <r>     5.5630     2.7093    19.9506 </r>
       <r>     5.6360     3.1106    20.1778 </r>
       <r>     5.7091     3.5055    20.4338 </r>
       <r>     5.7821     3.3436    20.6780 </r>
       <r>     5.8551     3.2990    20.9190 </r>
       <r>     5.9282     3.2496    21.1563 </r>
       <r>     6.0012     3.2392    21.3929 </r>
       <r>     6.0743     3.4327    21.6436 </r>
       <r>     6.1473     3.1676    21.8749 </r>
       <r>     6.2203     3.0170    22.0953 </r>
       <r>     6.2934     3.2982    22.3362 </r>
       <r>     6.3664     4.2281    22.6449 </r>
       <r>     6.4394     3.6157    22.9090 </r>
       <r>     6.5125     2.6370    23.1016 </r>
       <r>     6.5855     3.3357    23.3452 </r>
       <r>     6.6585     3.8969    23.6298 </r>
       <r>     6.7316     4.4801    23.9570 </r>
       <r>     6.8046     3.7177    24.2286 </r>
       <r>     6.8776     3.4809    24.4828 </r>
       <r>     6.9507     4.0263    24.7768 </r>
       <r>     7.0237     4.1701    25.0814 </r>
       <r>     7.0967     3.8841    25.3651 </r>
       <r>     7.1698     4.0268    25.6592 </r>
       <r>     7.2428     4.2152    25.9670 </r>
       <r>     7.3158     4.2374    26.2765 </r>
       <r>     7.3889     3.5662    26.5369 </r>
       <r>     7.4619     3.9666    26.8266 </r>
       <r>     7.5349     4.0692    27.1238 </r>
       <r>     7.6080     3.8354    27.4039 </r>
       <r>     7.6810     3.6540    27.6708 </r>
       <r>     7.7540     3.6502    27.9374 </r>
       <r>     7.8271     4.1761    28.2424 </r>
       <r>     7.9001     3.4981    28.4979 </r>
       <r>     7.9731     3.4869    28.7525 </r>
       <r>     8.0462     3.2191    28.9876 </r>
       <r>     8.1192     2.2116    29.1492 </r>
       <r>     8.1922     2.7315    29.3487 </r>
       <r>     8.2653     3.2143    29.5834 </r>
       <r>     8.3383     2.5212    29.7675 </r>
       <r>     8.4113     2.6370    29.9601 </r>
       <r>     8.4844     3.4412    30.2115 </r>
       <r>     8.5574     3.3613    30.4569 </r>
       <r>     8.6304     3.1802    30.6892 </r>
       <r>     8.7035     2.6333    30.8815 </r>
       <r>     8.7765     2.2752    31.0477 </r>
       <r>     8.8495     2.6638    31.2422 </r>
       <r>     8.9226     3.6659    31.5100 </r>
       <r>     8.9956     3.4722    31.7636 </r>
       <r>     9.0686     2.3564    31.9357 </r>
       <r>     9.1417     1.9165    32.0756 </r>
       <r>     9.2147     2.5566    32.2624 </r>
       <r>     9.2877     3.0186    32.4828 </r>
       <r>     9.3608     2.7578    32.6842 </r>
       <r>     9.4338     2.7985    32.8886 </r>
       <r>     9.5068     2.9774    33.1061 </r>
       <r>     9.5799     2.8630    33.3152 </r>
       <r>     9.6529     2.5742    33.5032 </r>
       <r>     9.7259     1.7816    33.6333 </r>
       <r>     9.7990     2.5883    33.8223 </r>
       <r>     9.8720     2.3944    33.9972 </r>
       <r>     9.9450     2.9101    34.2097 </r>
       <r>    10.0181     3.4330    34.4605 </r>
       <r>    10.0911     3.5638    34.7207 </r>
       <r>    10.1641     3.3774    34.9674 </r>
       <r>    10.2372     3.2524    35.2049 </r>
       <r>    10.3102     3.5873    35.4669 </r>
       <r>    10.3832     3.9442    35.7550 </r>
       <r>    10.4563     3.4416    36.0063 </r>
       <r>    10.5293     3.0831    36.2315 </r>
       <r>    10.6023     2.7037    36.4290 </r>
       <r>    10.6754     2.8283    36.6355 </r>
       <r>    10.7484     2.7731    36.8381 </r>
       <r>    10.8214     3.1125    37.0654 </r>
       <r>    10.8945     3.6316    37.3306 </r>
       <r>    10.9675     3.3735    37.5770 </r>
       <r>    11.0405     3.1441    37.8066 </r>
       <r>    11.1136     2.7359    38.0064 </r>
       <r>    11.1866     3.1960    38.2398 </r>
       <r>    11.2596     4.0093    38.5327 </r>
       <r>    11.3327     3.7616    38.8074 </r>
       <r>    11.4057     3.3762    39.0540 </r>
       <r>    11.4788     3.6584    39.3211 </r>
       <r>    11.5518     4.8969    39.6788 </r>
       <r>    11.6248     3.8119    39.9572 </r>
       <r>    11.6979     3.6638    40.2248 </r>
       <r>    11.7709     4.2216    40.5331 </r>
       <r>    11.8439     3.5178    40.7900 </r>
       <r>    11.9170     3.1160    41.0176 </r>
       <r>    11.9900     3.7310    41.2901 </r>
       <r>    12.0630     4.1448    41.5928 </r>
       <r>    12.1361     3.7997    41.8703 </r>
       <r>    12.2091     3.8033    42.1480 </r>
       <r>    12.2821     3.4292    42.3985 </r>
       <r>    12.3552     3.7403    42.6717 </r>
       <r>    12.4282     3.4265    42.9219 </r>
       <r>    12.5012     3.4906    43.1768 </r>
       <r>    12.5743     4.4921    43.5049 </r>
       <r>    12.6473     3.8067    43.7829 </r>
       <r>    12.7203     3.7685    44.0582 </r>
       <r>    12.7934     4.1653    44.3624 </r>
       <r>    12.8664     4.2126    44.6700 </r>
       <r>    12.9394     4.3731    44.9894 </r>
       <r>    13.0125     3.7904    45.2662 </r>
       <r>    13.0855     2.6926    45.4629 </r>
       <r>    13.1585     2.9589    45.6790 </r>
       <r>    13.2316     3.7570    45.9534 </r>
       <r>    13.3046     3.6814    46.2223 </r>
       <r>    13.3776     2.6653    46.4169 </r>
       <r>    13.4507     2.3131    46.5858 </r>
       <r>    13.5237     2.2285    46.7486 </r>
       <r>    13.5967     2.1915    46.9086 </r>
       <r>    13.6698     1.9844    47.0536 </r>
       <r>    13.7428     2.1866    47.2133 </r>
       <r>    13.8158     1.9658    47.3568 </r>
       <r>    13.8889     1.2582    47.4487 </r>
       <r>    13.9619     0.9513    47.5182 </r>
       <r>    14.0349     1.1249    47.6004 </r>
       <r>    14.1080     0.8263    47.6607 </r>
       <r>    14.1810     1.0661    47.7386 </r>
       <r>    14.2540     1.1778    47.8246 </r>
       <r>    14.3271     0.5116    47.8620 </r>
       <r>    14.4001     0.3479    47.8874 </r>
       <r>    14.4731     0.2879    47.9084 </r>
       <r>    14.5462     0.0814    47.9143 </r>
       <r>    14.6192     0.0647    47.9191 </r>
       <r>    14.6922     0.1470    47.9298 </r>
       <r>    14.7653     0.0655    47.9346 </r>
       <r>    14.8383     0.0018    47.9347 </r>
       <r>    14.9113     0.0188    47.9361 </r>
       <r>    14.9844     0.1554    47.9474 </r>
       <r>    15.0574     0.1589    47.9591 </r>
       <r>    15.1304     0.1181    47.9677 </r>
       <r>    15.2035     0.1922    47.9817 </r>
       <r>    15.2765     0.1751    47.9945 </r>
       <r>    15.3495     0.0680    47.9995 </r>
       <r>    15.4226     0.0073    48.0000 </r>
       <r>    15.4956     0.0000    48.0000 </r>
       <r>    15.5686     0.0000    48.0000 </r>
       <r>    15.6417     0.0000    48.0000 </r>
       <r>    15.7147     0.0000    48.0000 </r>
       <r>    15.7877     0.0000    48.0000 </r>
       <r>    15.8608     0.0000    48.0000 </r>
       <r>    15.9338     0.0000    48.0000 </r>
       <r>    16.0068     0.0000    48.0000 </r>
       <r>    16.0799     0.0000    48.0000 </r>
       <r>    16.1529     0.0000    48.0000 </r>
       <r>    16.2259     0.0000    48.0000 </r>
       <r>    16.2990     0.0000    48.0000 </r>
      </set>
     </set>
    </array>
   </total>
  </dos>
 </calculation>
 <structure name="finalpos" >
  <crystal>
   <varray name="basis" >
    <v>       2.45588316      -4.65323998      -0.00000001 </v>
    <v>       2.45588316       4.65323999       0.00000001 </v>
    <v>      -0.00000000       0.00000002       5.36090735 </v>
   </varray>
   <i name="volume">    122.52690127 </i>
   <varray name="rec_basis" >
    <v>       0.20359275      -0.10745201       0.00000000 </v>
    <v>       0.20359275       0.10745201      -0.00000000 </v>
    <v>      -0.00000000      -0.00000000       0.18653559 </v>
   </varray>
  </crystal>
  <varray name="positions" >
   <v>       0.50010233       0.50010233       0.77155089 </v>
   <v>       0.49989767       0.49989767       0.22844911 </v>
   <v>       0.99989767       0.99989767       0.27155089 </v>
   <v>       0.00010233       0.00010233       0.72844911 </v>
   <v>       0.72352619       0.27647381       0.50000000 </v>
   <v>       0.22352619       0.77647381       0.00000000 </v>
   <v>       0.27647381       0.72352619       0.50000000 </v>
   <v>       0.77647381       0.22352619       0.00000000 </v>
  </varray>
 </structure>
</modeling>
