matgen-relax                            
           1
     2.456095   -4.651155   -0.000000
     2.456095    4.651155    0.000000
    -0.000000    0.000000    5.360475
   Si
   8
Direct configuration=     1
   0.50134725  0.50134725  0.77108933
   0.49865277  0.49865277  0.22891067
   0.99865276  0.99865276  0.27108933
   0.00134722  0.00134721  0.72891067
   0.72381525  0.27618475  0.50000001
   0.22381523  0.77618473  0.99999999
   0.27618475  0.72381525  0.50000001
   0.77618477  0.22381527  1.00000000
matgen-relax                            
           1
     2.456194   -4.651154   -0.000000
     2.456194    4.651154    0.000000
    -0.000000    0.000000    5.360435
   Si
   8
Direct configuration=     2
   0.50133528  0.50133528  0.77111426
   0.49866474  0.49866473  0.22888573
   0.99866473  0.99866472  0.27111427
   0.00133526  0.00133525  0.72888573
   0.72381336  0.27618665  0.50000001
   0.22381334  0.77618663  0.99999999
   0.27618664  0.72381336  0.50000000
   0.77618665  0.22381338  0.99999999
matgen-relax                            
           1
     2.456390   -4.651151   -0.000000
     2.456390    4.651151    0.000000
    -0.000000    0.000000    5.360357
   Si
   8
Direct configuration=     3
   0.50133300  0.50133300  0.77111902
   0.49866702  0.49866702  0.22888098
   0.99866701  0.99866700  0.27111902
   0.00133297  0.00133297  0.72888097
   0.72381300  0.27618701  0.50000001
   0.22381298  0.77618699  0.99999999
   0.27618700  0.72381300  0.50000000
   0.77618701  0.22381301  0.99999999
matgen-relax                            
           1
     2.456784   -4.651147   -0.000000
     2.456784    4.651147    0.000000
    -0.000000    0.000000    5.360199
   Si
   8
Direct configuration=     4
   0.50132844  0.50132844  0.77112854
   0.49867158  0.49867158  0.22887146
   0.99867158  0.99867157  0.27112854
   0.00132841  0.00132841  0.72887146
   0.72381228  0.27618773  0.50000001
   0.22381226  0.77618772  1.00000000
   0.27618772  0.72381227  0.50000000
   0.77618774  0.22381229  0.99999999
matgen-relax                            
           1
     2.456977   -4.651145   -0.000000
     2.456977    4.651145    0.000000
    -0.000000    0.000000    5.360122
   Si
   8
Direct configuration=     5
   0.50131931  0.50131931  0.77114756
   0.49868071  0.49868070  0.22885243
   0.99868070  0.99868069  0.27114757
   0.00131929  0.00131928  0.72885243
   0.72381084  0.27618918  0.50000001
   0.22381082  0.77618916  1.00000000
   0.27618916  0.72381083  0.50000000
   0.77618918  0.22381084  0.99999999
matgen-relax                            
           1
     2.456938   -4.651246   -0.000000
     2.456938    4.651246    0.000000
    -0.000000    0.000000    5.360016
   Si
   8
Direct configuration=     6
   0.50131484  0.50131483  0.77115690
   0.49868518  0.49868518  0.22884310
   0.99868518  0.99868517  0.27115690
   0.00131481  0.00131481  0.72884310
   0.72381013  0.27618989  0.50000001
   0.22381011  0.77618987  1.00000000
   0.27618987  0.72381012  0.50000000
   0.77618988  0.22381014  0.99999999
matgen-relax                            
           1
     2.456821   -4.651549   -0.000000
     2.456821    4.651549    0.000000
     0.000000    0.000000    5.359699
   Si
   8
Direct configuration=     7
   0.50129769  0.50129769  0.77117697
   0.49870232  0.49870232  0.22882303
   0.99870232  0.99870231  0.27117697
   0.00129767  0.00129766  0.72882303
   0.72380898  0.27619104  0.50000001
   0.22380896  0.77619103  1.00000000
   0.27619102  0.72380897  0.50000000
   0.77619103  0.22380898  0.99999999
matgen-relax                            
           1
     2.456587   -4.652155   -0.000000
     2.456587    4.652155    0.000000
     0.000000    0.000000    5.359066
   Si
   8
Direct configuration=     8
   0.50124626  0.50124626  0.77123718
   0.49875375  0.49875375  0.22876282
   0.99875375  0.99875374  0.27123718
   0.00124625  0.00124624  0.72876282
   0.72380552  0.27619450  0.50000001
   0.22380550  0.77619449  1.00000000
   0.27619448  0.72380551  0.50000000
   0.77619449  0.22380552  0.99999999
matgen-relax                            
           1
     2.456118   -4.653368   -0.000000
     2.456118    4.653368    0.000000
     0.000000    0.000000    5.357799
   Si
   8
Direct configuration=     9
   0.50114339  0.50114339  0.77135760
   0.49885661  0.49885661  0.22864240
   0.99885661  0.99885660  0.27135760
   0.00114339  0.00114339  0.72864239
   0.72379860  0.27620141  0.50000001
   0.22379860  0.77620141  0.00000000
   0.27620140  0.72379859  0.50000000
   0.77620140  0.22379859  0.99999999
matgen-relax                            
           1
     2.456368   -4.652721   -0.000000
     2.456368    4.652721    0.000000
     0.000000    0.000000    5.358475
   Si
   8
Direct configuration=    10
   0.50093764  0.50093764  0.77159848
   0.49906234  0.49906234  0.22840152
   0.99906236  0.99906235  0.27159848
   0.00093767  0.00093767  0.72840152
   0.72378476  0.27621523  0.50000001
   0.22378478  0.77621526  0.00000000
   0.27621523  0.72378477  0.50000000
   0.77621522  0.22378475  0.99999999
matgen-relax                            
           1
     2.456189   -4.652698   -0.000000
     2.456189    4.652698    0.000000
     0.000000    0.000000    5.359207
   Si
   8
Direct configuration=    11
   0.50104743  0.50104743  0.77146994
   0.49895256  0.49895256  0.22853006
   0.99895257  0.99895256  0.27146994
   0.00104744  0.00104744  0.72853005
   0.72379214  0.27620786  0.50000001
   0.22379215  0.77620787  0.00000000
   0.27620785  0.72379214  0.50000000
   0.77620785  0.22379213  0.99999999
matgen-relax                            
           1
     2.455650   -4.652630   -0.000000
     2.455650    4.652629    0.000000
    -0.000000    0.000000    5.361404
   Si
   8
Direct configuration=    12
   0.50096428  0.50096428  0.77148720
   0.49903571  0.49903571  0.22851280
   0.99903572  0.99903571  0.27148720
   0.00096430  0.00096430  0.72851280
   0.72377193  0.27622807  0.50000001
   0.22377194  0.77622808  0.00000000
   0.27622807  0.72377193  0.50000000
   0.77622806  0.22377192  0.99999999
matgen-relax                            
           1
     2.454572   -4.652492   -0.000000
     2.454571    4.652492    0.000000
    -0.000000    0.000000    5.365798
   Si
   8
Direct configuration=    13
   0.50071482  0.50071483  0.77153896
   0.49928516  0.49928517  0.22846104
   0.99928517  0.99928517  0.27153895
   0.00071484  0.00071484  0.72846104
   0.72371130  0.27628869  0.50000001
   0.22371131  0.77628871  0.00000000
   0.27628870  0.72371130  0.49999999
   0.77628869  0.22371129  1.00000000
matgen-relax                            
           1
     2.455397   -4.652597   -0.000000
     2.455397    4.652597    0.000000
    -0.000000    0.000000    5.362432
   Si
   8
Direct configuration=    14
   0.50021580  0.50021580  0.77164243
   0.49978419  0.49978420  0.22835757
   0.99978419  0.99978420  0.27164242
   0.00021581  0.00021582  0.72835757
   0.72359003  0.27640995  0.50000000
   0.22359005  0.77640996  0.00000001
   0.27640997  0.72359004  0.49999999
   0.77640997  0.22359003  0.00000001
matgen-relax                            
           1
     2.455620   -4.652159   -0.000000
     2.455620    4.652159    0.000000
    -0.000000    0.000000    5.362334
   Si
   8
Direct configuration=    15
   0.50059822  0.50059822  0.77156324
   0.49940177  0.49940177  0.22843677
   0.99940177  0.99940177  0.27156323
   0.00059823  0.00059824  0.72843677
   0.72368292  0.27631706  0.50000000
   0.22368294  0.77631708  0.00000001
   0.27631708  0.72368293  0.49999999
   0.77631707  0.22368292 -0.00000000
matgen-relax                            
           1
     2.456044   -4.651326   -0.000000
     2.456044    4.651326    0.000000
    -0.000000    0.000000    5.362146
   Si
   8
Direct configuration=    16
   0.50048784  0.50048785  0.77156844
   0.49951215  0.49951215  0.22843156
   0.99951215  0.99951215  0.27156843
   0.00048785  0.00048786  0.72843156
   0.72364448  0.27635551  0.50000000
   0.22364449  0.77635551  0.00000001
   0.27635552  0.72364449  0.49999999
   0.77635551  0.22364448  0.00000000
matgen-relax                            
           1
     2.456082   -4.651251   -0.000000
     2.456082    4.651251    0.000000
    -0.000000    0.000000    5.362129
   Si
   8
Direct configuration=    17
   0.50027779  0.50027780  0.77157834
   0.49972220  0.49972221  0.22842166
   0.99972220  0.99972221  0.27157834
   0.00027779  0.00027780  0.72842166
   0.72357131  0.27642868  0.50000000
   0.22357132  0.77642868  0.00000000
   0.27642869  0.72357132  0.49999999
   0.77642869  0.22357132  0.00000000
matgen-relax                            
           1
     2.456083   -4.651817   -0.000000
     2.456083    4.651817    0.000000
    -0.000000    0.000000    5.361743
   Si
   8
Direct configuration=    18
   0.50025892  0.50025892  0.77157923
   0.49974108  0.49974109  0.22842077
   0.99974108  0.99974108  0.27157923
   0.00025891  0.00025892  0.72842077
   0.72356473  0.27643526  0.50000000
   0.22356474  0.77643526  0.00000000
   0.27643527  0.72356474  0.49999999
   0.77643527  0.22356474  0.00000000
matgen-relax                            
           1
     2.456086   -4.652886   -0.000000
     2.456086    4.652886    0.000000
     0.000000    0.000000    5.361014
   Si
   8
Direct configuration=    19
   0.50021920  0.50021920  0.77157572
   0.49978080  0.49978080  0.22842428
   0.99978080  0.99978080  0.27157571
   0.00021920  0.00021920  0.72842428
   0.72355471  0.27644529  0.50000000
   0.22355471  0.77644529  0.00000000
   0.27644529  0.72355471  0.49999999
   0.77644530  0.22355471  0.00000000
matgen-relax                            
           1
     2.456086   -4.652967   -0.000000
     2.456086    4.652967    0.000000
     0.000000    0.000000    5.360959
   Si
   8
Direct configuration=    20
   0.50014412  0.50014412  0.77156907
   0.49985588  0.49985588  0.22843093
   0.99985588  0.99985588  0.27156907
   0.00014412  0.00014412  0.72843093
   0.72353575  0.27646425  0.50000000
   0.22353575  0.77646424  0.00000000
   0.27646424  0.72353575  0.50000000
   0.77646425  0.22353575  0.00000000
matgen-relax                            
           1
     2.456087   -4.653127   -0.000000
     2.456087    4.653127    0.000000
     0.000000    0.000000    5.360850
   Si
   8
Direct configuration=    21
   0.50013849  0.50013849  0.77156857
   0.49986152  0.49986152  0.22843143
   0.99986152  0.99986152  0.27156857
   0.00013848  0.00013848  0.72843142
   0.72353433  0.27646567  0.50000000
   0.22353433  0.77646567  0.00000000
   0.27646567  0.72353433  0.50000000
   0.77646567  0.22353433  0.00000000
matgen-relax                            
           1
     2.455883   -4.653240   -0.000000
     2.455883    4.653240    0.000000
    -0.000000    0.000000    5.360907
   Si
   8
Direct configuration=    22
   0.50012721  0.50012721  0.77156758
   0.49987279  0.49987279  0.22843242
   0.99987279  0.99987279  0.27156758
   0.00012721  0.00012721  0.72843242
   0.72353148  0.27646852  0.50000000
   0.22353148  0.77646851  0.00000000
   0.27646851  0.72353148  0.50000000
   0.77646852  0.22353149  0.00000000
matgen-relax                            
           1
     2.455883   -4.653240   -0.000000
     2.455883    4.653240    0.000000
    -0.000000    0.000000    5.360907
   Si
   8
Direct configuration=    23
   0.50010233  0.50010233  0.77155089
   0.49989767  0.49989767  0.22844911
   0.99989767  0.99989767  0.27155089
   0.00010233  0.00010233  0.72844911
   0.72352619  0.27647381  0.50000000
   0.22352619  0.77647381  0.00000000
   0.27647381  0.72352619  0.50000000
   0.77647381  0.22352619  0.00000000
