   13   13    1    2
  0.1919617E+02  0.7066825E-09  0.7066825E-09  0.7066825E-09  0.5000000E-16
  1.000000000000000E-004
  CAR 
 matgen                                  
    105    240     72
 
  0.0000000E+00  0.0000000E+00  0.0000000E+00  0.4166667E-02
    1      -29.399529    -29.399911   1.000000   1.000000
    2      -29.121039    -29.121449   1.000000   1.000000
    3      -29.121039    -29.121449   1.000000   1.000000
    4      -29.121039    -29.121449   1.000000   1.000000
    5      -29.001110    -29.001533   1.000000   1.000000
    6      -29.001110    -29.001533   1.000000   1.000000
    7      -28.812136    -28.812539   1.000000   1.000000
    8      -28.812136    -28.812539   1.000000   1.000000
    9      -28.812136    -28.812539   1.000000   1.000000
   10      -28.797172    -28.797505   1.000000   1.000000
   11      -28.797172    -28.797505   1.000000   1.000000
   12      -28.797172    -28.797504   1.000000   1.000000
   13      -11.686421    -11.686732   1.000000   1.000000
   14      -11.686421    -11.686732   1.000000   1.000000
   15      -11.686421    -11.686732   1.000000   1.000000
   16      -11.477255    -11.477550   1.000000   1.000000
   17      -11.477255    -11.477550   1.000000   1.000000
   18       -9.539949     -9.539524   1.000000   1.000000
   19       -7.738551     -7.738552   1.000000   1.000000
   20       -7.420094     -7.420133   1.000000   1.000000
   21       -7.420093     -7.420133   1.000000   1.000000
   22       -7.420093     -7.420133   1.000000   1.000000
   23       -7.182048     -7.182244   1.000000   1.000000
   24       -7.182048     -7.182244   1.000000   1.000000
   25       -7.182048     -7.182244   1.000000   1.000000
   26       -2.854784     -2.853930   1.000000   1.000000
   27       -1.034832     -1.033757   1.000000   1.000000
   28       -1.034832     -1.033757   1.000000   1.000000
   29       -1.034832     -1.033757   1.000000   1.000000
   30       -0.405103     -0.405175   1.000000   1.000000
   31        0.599496      0.600955   1.000000   1.000000
   32        0.599496      0.600955   1.000000   1.000000
   33        2.456387      2.456302   1.000000   1.000000
   34        2.456388      2.456303   1.000000   1.000000
   35        2.456388      2.456303   1.000000   1.000000
   36        2.682225      2.681801   1.000000   1.000000
   37        2.682225      2.681801   1.000000   1.000000
   38        2.682225      2.681801   1.000000   1.000000
   39        2.956249      2.955724   1.000000   1.000000
   40        2.956250      2.955724   1.000000   1.000000
   41        3.070414      3.069880   1.000000   1.000000
   42        3.070414      3.069880   1.000000   1.000000
   43        3.070414      3.069880   1.000000   1.000000
   44        3.408187      3.407405   1.000000   1.000000
   45        3.643838      3.644209   1.000000   1.000000
   46        3.643838      3.644209   1.000000   1.000000
   47        3.643838      3.644209   1.000000   1.000000
   48        4.863855      4.863678   1.000000   1.000000
   49        4.863855      4.863678   1.000000   1.000000
   50        5.032972      5.032755   1.000000   1.000000
   51        5.032972      5.032755   1.000000   1.000000
   52        5.032972      5.032755   1.000000   1.000000
   53        6.393806      6.393065   0.022603   0.023752
   54        6.393806      6.393065   0.022602   0.023751
   55        6.393808      6.393066   0.022599   0.023751
   56        7.129844      7.131147   0.000000   0.000000
   57        8.684383      8.685607   0.000000   0.000000
   58        8.684384      8.685611   0.000000   0.000000
   59        8.684385      8.685630   0.000000   0.000000
   60        8.950897      8.952239   0.000000   0.000000
   61        8.950899      8.952243   0.000000   0.000000
   62        8.950904      8.952260   0.000000   0.000000
   63        9.412814      9.412025   0.000000   0.000000
   64        9.412829      9.412043   0.000000   0.000000
   65        9.413068      9.412076   0.000000   0.000000
   66        9.851357      9.850776   0.000000   0.000000
   67        9.851945      9.850958   0.000000   0.000000
   68        9.858775      9.860488   0.000000   0.000000
   69        9.858845      9.860511   0.000000   0.000000
   70        9.859465      9.860667   0.000000   0.000000
   71       10.137871     10.138625   0.000000   0.000000
   72       11.249443     11.248988   0.000000   0.000000
 
  0.1282051E-01  0.0000000E+00  0.1282051E-01  0.4166667E-02
    1      -29.399503    -29.399884   1.000000   1.000000
    2      -29.121040    -29.121450   1.000000   1.000000
    3      -29.121023    -29.121433   1.000000   1.000000
    4      -29.121023    -29.121433   1.000000   1.000000
    5      -29.001113    -29.001536   1.000000   1.000000
    6      -29.001102    -29.001525   1.000000   1.000000
    7      -28.812145    -28.812548   1.000000   1.000000
    8      -28.812145    -28.812548   1.000000   1.000000
    9      -28.812145    -28.812548   1.000000   1.000000
   10      -28.797203    -28.797535   1.000000   1.000000
   11      -28.797183    -28.797515   1.000000   1.000000
   12      -28.797183    -28.797515   1.000000   1.000000
   13      -11.686432    -11.686743   1.000000   1.000000
   14      -11.686420    -11.686732   1.000000   1.000000
   15      -11.686420    -11.686732   1.000000   1.000000
   16      -11.477256    -11.477551   1.000000   1.000000
   17      -11.477255    -11.477550   1.000000   1.000000
   18       -9.539122     -9.538697   1.000000   1.000000
   19       -7.739133     -7.739134   1.000000   1.000000
   20       -7.420843     -7.420881   1.000000   1.000000
   21       -7.420138     -7.420177   1.000000   1.000000
   22       -7.420137     -7.420177   1.000000   1.000000
   23       -7.182458     -7.182655   1.000000   1.000000
   24       -7.182093     -7.182290   1.000000   1.000000
   25       -7.182093     -7.182290   1.000000   1.000000
   26       -2.852955     -2.852101   1.000000   1.000000
   27       -1.033552     -1.032478   1.000000   1.000000
   28       -1.033148     -1.032073   1.000000   1.000000
   29       -1.033148     -1.032073   1.000000   1.000000
   30       -0.404935     -0.405007   1.000000   1.000000
   31        0.598911      0.600368   1.000000   1.000000
   32        0.599977      0.601436   1.000000   1.000000
   33        2.451705      2.451635   1.000000   1.000000
   34        2.454448      2.454363   1.000000   1.000000
   35        2.454449      2.454364   1.000000   1.000000
   36        2.680104      2.679680   1.000000   1.000000
   37        2.680104      2.679680   1.000000   1.000000
   38        2.681251      2.680812   1.000000   1.000000
   39        2.953980      2.953457   1.000000   1.000000
   40        2.956195      2.955672   1.000000   1.000000
   41        3.071385      3.070854   1.000000   1.000000
   42        3.071385      3.070854   1.000000   1.000000
   43        3.073156      3.072620   1.000000   1.000000
   44        3.411391      3.410612   1.000000   1.000000
   45        3.639558      3.639930   1.000000   1.000000
   46        3.643719      3.644089   1.000000   1.000000
   47        3.643719      3.644089   1.000000   1.000000
   48        4.863130      4.862951   1.000000   1.000000
   49        4.867838      4.867658   1.000000   1.000000
   50        5.031074      5.030857   1.000000   1.000000
   51        5.031074      5.030857   1.000000   1.000000
   52        5.031699      5.031484   1.000000   1.000000
   53        6.393078      6.392337   0.023731   0.024929
   54        6.395772      6.395030   0.019778   0.020807
   55        6.395773      6.395030   0.019777   0.020807
   56        7.131356      7.132658   0.000000   0.000000
   57        8.680978      8.682203   0.000000   0.000000
   58        8.680983      8.682206   0.000000   0.000000
   59        8.685778      8.687006   0.000000   0.000000
   60        8.951759      8.953106   0.000000   0.000000
   61        8.956901      8.958234   0.000000   0.000000
   62        8.956909      8.958240   0.000000   0.000000
   63        9.408915      9.408223   0.000000   0.000000
   64        9.410339      9.409599   0.000000   0.000000
   65        9.410382      9.409623   0.000000   0.000000
   66        9.771775      9.772592   0.000000   0.000000
   67        9.855755      9.855111   0.000000   0.000000
   68        9.862532      9.864278   0.000000   0.000000
   69        9.862635      9.864901   0.000000   0.000000
   70        9.937804      9.938492   0.000000   0.000000
   71       10.143019     10.151242   0.000000   0.000000
   72       11.248768     11.247832   0.000000   0.000000
 
  0.2564103E-01  0.0000000E+00  0.2564103E-01  0.4166667E-02
    1      -29.399421    -29.399802   1.000000   1.000000
    2      -29.121043    -29.121453   1.000000   1.000000
    3      -29.120973    -29.121384   1.000000   1.000000
    4      -29.120973    -29.121384   1.000000   1.000000
    5      -29.001121    -29.001544   1.000000   1.000000
    6      -29.001078    -29.001501   1.000000   1.000000
    7      -28.812172    -28.812575   1.000000   1.000000
    8      -28.812170    -28.812574   1.000000   1.000000
    9      -28.812170    -28.812574   1.000000   1.000000
   10      -28.797296    -28.797628   1.000000   1.000000
   11      -28.797215    -28.797547   1.000000   1.000000
   12      -28.797215    -28.797547   1.000000   1.000000
   13      -11.686463    -11.686775   1.000000   1.000000
   14      -11.686417    -11.686729   1.000000   1.000000
   15      -11.686417    -11.686729   1.000000   1.000000
   16      -11.477256    -11.477551   1.000000   1.000000
   17      -11.477255    -11.477550   1.000000   1.000000
   18       -9.536628     -9.536203   1.000000   1.000000
   19       -7.740872     -7.740873   1.000000   1.000000
   20       -7.423089     -7.423123   1.000000   1.000000
   21       -7.420274     -7.420312   1.000000   1.000000
   22       -7.420274     -7.420312   1.000000   1.000000
   23       -7.183687     -7.183886   1.000000   1.000000
   24       -7.182226     -7.182424   1.000000   1.000000
   25       -7.182226     -7.182424   1.000000   1.000000
   26       -2.847475     -2.846622   1.000000   1.000000
   27       -1.029714     -1.028641   1.000000   1.000000
   28       -1.028103     -1.027029   1.000000   1.000000
   29       -1.028102     -1.027029   1.000000   1.000000
   30       -0.404434     -0.404508   1.000000   1.000000
   31        0.597205      0.598655   1.000000   1.000000
   32        0.601420      0.602878   1.000000   1.000000
   33        2.437376      2.437347   1.000000   1.000000
   34        2.448499      2.448415   1.000000   1.000000
   35        2.448500      2.448416   1.000000   1.000000
   36        2.674056      2.673632   1.000000   1.000000
   37        2.674056      2.673632   1.000000   1.000000
   38        2.679051      2.678573   1.000000   1.000000
   39        2.947735      2.947219   1.000000   1.000000
   40        2.955843      2.955327   1.000000   1.000000
   41        3.074163      3.073643   1.000000   1.000000
   42        3.074163      3.073643   1.000000   1.000000
   43        3.080811      3.080270   1.000000   1.000000
   44        3.420707      3.419935   1.000000   1.000000
   45        3.626915      3.627292   1.000000   1.000000
   46        3.643339      3.643705   1.000000   1.000000
   47        3.643339      3.643705   1.000000   1.000000
   48        4.860727      4.860541   1.000000   1.000000
   49        4.879587      4.879398   1.000000   1.000000
   50        5.025420      5.025203   1.000000   1.000000
   51        5.025421      5.025203   1.000000   1.000000
   52        5.028126      5.027917   1.000000   1.000000
   53        6.390891      6.390148   0.027410   0.028763
   54        6.401609      6.400861   0.013093   0.013822
   55        6.401610      6.400862   0.013092   0.013822
   56        7.135940      7.137237   0.000000   0.000000
   57        8.671617      8.672846   0.000000   0.000000
   58        8.671620      8.672855   0.000000   0.000000
   59        8.689943      8.691155   0.000000   0.000000
   60        8.954357      8.955709   0.000000   0.000000
   61        8.973904      8.975228   0.000000   0.000000
   62        8.973925      8.975241   0.000000   0.000000
   63        9.397659      9.396876   0.000000   0.000000
   64        9.403381      9.402639   0.000000   0.000000
   65        9.403456      9.402698   0.000000   0.000000
   66        9.689645      9.690404   0.000000   0.000000
   67        9.868263      9.867555   0.000000   0.000000
   68        9.873415      9.875025   0.000000   0.000000
   69        9.873587      9.875134   0.000000   0.000000
   70       10.016347     10.016391   0.000000   0.000000
   71       10.164771     10.166572   0.000000   0.000000
   72       11.243361     11.243496   0.000000   0.000000
 
  0.3846154E-01  0.0000000E+00  0.3846154E-01  0.4166667E-02
    1      -29.399285    -29.399667   1.000000   1.000000
    2      -29.121047    -29.121457   1.000000   1.000000
    3      -29.120892    -29.121302   1.000000   1.000000
    4      -29.120892    -29.121302   1.000000   1.000000
    5      -29.001132    -29.001555   1.000000   1.000000
    6      -29.001037    -29.001459   1.000000   1.000000
    7      -28.812215    -28.812618   1.000000   1.000000
    8      -28.812211    -28.812615   1.000000   1.000000
    9      -28.812211    -28.812615   1.000000   1.000000
   10      -28.797444    -28.797777   1.000000   1.000000
   11      -28.797266    -28.797598   1.000000   1.000000
   12      -28.797266    -28.797598   1.000000   1.000000
   13      -11.686515    -11.686827   1.000000   1.000000
   14      -11.686412    -11.686724   1.000000   1.000000
   15      -11.686412    -11.686724   1.000000   1.000000
   16      -11.477258    -11.477553   1.000000   1.000000
   17      -11.477253    -11.477549   1.000000   1.000000
   18       -9.532469     -9.532045   1.000000   1.000000
   19       -7.743740     -7.743742   1.000000   1.000000
   20       -7.426841     -7.426869   1.000000   1.000000
   21       -7.420514     -7.420550   1.000000   1.000000
   22       -7.420513     -7.420550   1.000000   1.000000
   23       -7.185726     -7.185928   1.000000   1.000000
   24       -7.182434     -7.182633   1.000000   1.000000
   25       -7.182434     -7.182633   1.000000   1.000000
   26       -2.838371     -2.837519   1.000000   1.000000
   27       -1.023317     -1.022247   1.000000   1.000000
   28       -1.019710     -1.018638   1.000000   1.000000
   29       -1.019710     -1.018638   1.000000   1.000000
   30       -0.403624     -0.403700   1.000000   1.000000
   31        0.594495      0.595934   1.000000   1.000000
   32        0.603825      0.605282   1.000000   1.000000
   33        2.412908      2.412933   1.000000   1.000000
   34        2.438178      2.438095   1.000000   1.000000
   35        2.438178      2.438096   1.000000   1.000000
   36        2.664938      2.664515   1.000000   1.000000
   37        2.664938      2.664515   1.000000   1.000000
   38        2.677239      2.676712   1.000000   1.000000
   39        2.938709      2.938204   1.000000   1.000000
   40        2.954754      2.954250   1.000000   1.000000
   41        3.078374      3.077868   1.000000   1.000000
   42        3.078374      3.077869   1.000000   1.000000
   43        3.092156      3.091607   1.000000   1.000000
   44        3.435323      3.434564   1.000000   1.000000
   45        3.606469      3.606851   1.000000   1.000000
   46        3.642635      3.642997   1.000000   1.000000
   47        3.642635      3.642997   1.000000   1.000000
   48        4.855951      4.855754   1.000000   1.000000
   49        4.898540      4.898338   1.000000   1.000000
   50        5.016120      5.015902   1.000000   1.000000
   51        5.016120      5.015902   1.000000   1.000000
   52        5.022983      5.022785   1.000000   1.000000
   53        6.387240      6.386498   0.034606   0.036245
   54        6.411159      6.410402   0.006324   0.006715
   55        6.411159      6.410403   0.006323   0.006715
   56        7.143714      7.145005   0.000000   0.000000
   57        8.658199      8.659430   0.000000   0.000000
   58        8.658200      8.659431   0.000000   0.000000
   59        8.696812      8.698015   0.000000   0.000000
   60        8.958725      8.960113   0.000000   0.000000
   61        8.999512      9.000794   0.000000   0.000000
   62        8.999515      9.000805   0.000000   0.000000
   63        9.380256      9.379490   0.000000   0.000000
   64        9.393253      9.392674   0.000000   0.000000
   65        9.393701      9.392699   0.000000   0.000000
   66        9.609757      9.610257   0.000000   0.000000
   67        9.888110      9.887260   0.000000   0.000000
   68        9.890474      9.891994   0.000000   0.000000
   69        9.891213      9.892436   0.000000   0.000000
   70       10.081469     10.082333   0.000000   0.000000
   71       10.207292     10.208707   0.000000   0.000000
   72       11.235809     11.236055   0.000000   0.000000
 
  0.5128205E-01  0.0000000E+00  0.5128205E-01  0.4166667E-02
    1      -29.399096    -29.399478   1.000000   1.000000
    2      -29.121051    -29.121461   1.000000   1.000000
    3      -29.120777    -29.121188   1.000000   1.000000
    4      -29.120777    -29.121188   1.000000   1.000000
    5      -29.001148    -29.001571   1.000000   1.000000
    6      -29.000981    -29.001403   1.000000   1.000000
    7      -28.812274    -28.812677   1.000000   1.000000
    8      -28.812269    -28.812672   1.000000   1.000000
    9      -28.812269    -28.812672   1.000000   1.000000
   10      -28.797649    -28.797981   1.000000   1.000000
   11      -28.797336    -28.797669   1.000000   1.000000
   12      -28.797336    -28.797669   1.000000   1.000000
   13      -11.686588    -11.686900   1.000000   1.000000
   14      -11.686406    -11.686717   1.000000   1.000000
   15      -11.686406    -11.686717   1.000000   1.000000
   16      -11.477260    -11.477555   1.000000   1.000000
   17      -11.477252    -11.477547   1.000000   1.000000
   18       -9.526653     -9.526228   1.000000   1.000000
   19       -7.747696     -7.747700   1.000000   1.000000
   20       -7.432115     -7.432134   1.000000   1.000000
   21       -7.420872     -7.420905   1.000000   1.000000
   22       -7.420871     -7.420905   1.000000   1.000000
   23       -7.188564     -7.188769   1.000000   1.000000
   24       -7.182694     -7.182895   1.000000   1.000000
   25       -7.182694     -7.182895   1.000000   1.000000
   26       -2.825684     -2.824834   1.000000   1.000000
   27       -1.014360     -1.013294   1.000000   1.000000
   28       -1.007993     -1.006924   1.000000   1.000000
   29       -1.007993     -1.006924   1.000000   1.000000
   30       -0.402538     -0.402617   1.000000   1.000000
   31        0.590977      0.592403   1.000000   1.000000
   32        0.607187      0.608642   1.000000   1.000000
   33        2.378295      2.378373   1.000000   1.000000
   34        2.422986      2.422905   1.000000   1.000000
   35        2.422987      2.422905   1.000000   1.000000
   36        2.653953      2.653533   1.000000   1.000000
   37        2.653953      2.653533   1.000000   1.000000
   38        2.677222      2.676651   1.000000   1.000000
   39        2.927994      2.927502   1.000000   1.000000
   40        2.952451      2.951959   1.000000   1.000000
   41        3.083520      3.083032   1.000000   1.000000
   42        3.083520      3.083032   1.000000   1.000000
   43        3.106049      3.105492   1.000000   1.000000
   44        3.454099      3.453356   1.000000   1.000000
   45        3.579048      3.579438   1.000000   1.000000
   46        3.641514      3.641870   1.000000   1.000000
   47        3.641515      3.641870   1.000000   1.000000
   48        4.847677      4.847465   1.000000   1.000000
   49        4.923875      4.923653   1.000000   1.000000
   50        5.003348      5.003129   1.000000   1.000000
   51        5.003348      5.003129   1.000000   1.000000
   52        5.017449      5.017264   1.000000   1.000000
   53        6.382118      6.381372   0.047248   0.049363
   54        6.424163      6.423394   0.002109   0.002258
   55        6.424164      6.423395   0.002109   0.002258
   56        7.154883      7.156162   0.000000   0.000000
   57        8.642581      8.643815   0.000000   0.000000
   58        8.642582      8.643816   0.000000   0.000000
   59        8.706282      8.707460   0.000000   0.000000
   60        8.964960      8.966366   0.000000   0.000000
   61        9.030906      9.032123   0.000000   0.000000
   62        9.030925      9.032125   0.000000   0.000000
   63        9.358289      9.357509   0.000000   0.000000
   64        9.382220      9.381776   0.000000   0.000000
   65        9.382479      9.381819   0.000000   0.000000
   66        9.532624      9.533176   0.000000   0.000000
   67        9.912361      9.912331   0.000000   0.000000
   68        9.912416      9.913841   0.000000   0.000000
   69        9.913079      9.914504   0.000000   0.000000
   70       10.130075     10.131102   0.000000   0.000000
   71       10.274465     10.276027   0.000000   0.000000
   72       11.224304     11.223725   0.000000   0.000000
 
  0.6410256E-01  0.0000000E+00  0.6410256E-01  0.4166667E-02
    1      -29.398854    -29.399236   1.000000   1.000000
    2      -29.121056    -29.121466   1.000000   1.000000
    3      -29.120630    -29.121041   1.000000   1.000000
    4      -29.120630    -29.121040   1.000000   1.000000
    5      -29.001167    -29.001590   1.000000   1.000000
    6      -29.000909    -29.001332   1.000000   1.000000
    7      -28.812349    -28.812752   1.000000   1.000000
    8      -28.812341    -28.812745   1.000000   1.000000
    9      -28.812341    -28.812745   1.000000   1.000000
   10      -28.797909    -28.798241   1.000000   1.000000
   11      -28.797426    -28.797758   1.000000   1.000000
   12      -28.797426    -28.797758   1.000000   1.000000
   13      -11.686681    -11.686992   1.000000   1.000000
   14      -11.686398    -11.686709   1.000000   1.000000
   15      -11.686398    -11.686709   1.000000   1.000000
   16      -11.477263    -11.477558   1.000000   1.000000
   17      -11.477251    -11.477546   1.000000   1.000000
   18       -9.519185     -9.518762   1.000000   1.000000
   19       -7.752685     -7.752689   1.000000   1.000000
   20       -7.438924     -7.438932   1.000000   1.000000
   21       -7.421367     -7.421398   1.000000   1.000000
   22       -7.421367     -7.421398   1.000000   1.000000
   23       -7.192188     -7.192398   1.000000   1.000000
   24       -7.182975     -7.183178   1.000000   1.000000
   25       -7.182975     -7.183178   1.000000   1.000000
   26       -2.809473     -2.808626   1.000000   1.000000
   27       -1.002844     -1.001783   1.000000   1.000000
   28       -0.992983     -0.991917   1.000000   1.000000
   29       -0.992982     -0.991917   1.000000   1.000000
   30       -0.401217     -0.401299   1.000000   1.000000
   31        0.586915      0.588322   1.000000   1.000000
   32        0.611503      0.612957   1.000000   1.000000
   33        2.334327      2.334452   1.000000   1.000000
   34        2.402463      2.402382   1.000000   1.000000
   35        2.402464      2.402382   1.000000   1.000000
   36        2.642353      2.641940   1.000000   1.000000
   37        2.642353      2.641940   1.000000   1.000000
   38        2.679503      2.678900   1.000000   1.000000
   39        2.916325      2.915847   1.000000   1.000000
   40        2.948581      2.948106   1.000000   1.000000
   41        3.089076      3.088609   1.000000   1.000000
   42        3.089076      3.088609   1.000000   1.000000
   43        3.121686      3.121122   1.000000   1.000000
   44        3.475823      3.475099   1.000000   1.000000
   45        3.545633      3.546032   1.000000   1.000000
   46        3.639864      3.640214   1.000000   1.000000
   47        3.639864      3.640214   1.000000   1.000000
   48        4.834548      4.834319   1.000000   1.000000
   49        4.954625      4.954381   1.000000   1.000000
   50        4.987341      4.987120   1.000000   1.000000
   51        4.987341      4.987120   1.000000   1.000000
   52        5.012994      5.012822   1.000000   1.000000
   53        6.375514      6.374766   0.068723   0.071567
   54        6.440277      6.439493   0.000455   0.000492
   55        6.440278      6.439493   0.000455   0.000492
   56        7.169690      7.170951   0.000000   0.000000
   57        8.626104      8.627342   0.000000   0.000000
   58        8.626107      8.627344   0.000000   0.000000
   59        8.718164      8.719321   0.000000   0.000000
   60        8.973067      8.974537   0.000000   0.000000
   61        9.065007      9.066116   0.000000   0.000000
   62        9.065021      9.066123   0.000000   0.000000
   63        9.333093      9.332361   0.000000   0.000000
   64        9.373084      9.372832   0.000000   0.000000
   65        9.373125      9.372846   0.000000   0.000000
   66        9.459188      9.459731   0.000000   0.000000
   67        9.938204      9.939450   0.000000   0.000000
   68        9.938560      9.939487   0.000000   0.000000
   69        9.941530      9.940745   0.000000   0.000000
   70       10.171088     10.171998   0.000000   0.000000
   71       10.362837     10.358434   0.000000   0.000000
   72       11.207875     11.212038   0.000000   0.000000
 
  0.7692308E-01  0.0000000E+00  0.7692308E-01  0.4166667E-02
    1      -29.398561    -29.398943   1.000000   1.000000
    2      -29.121062    -29.121472   1.000000   1.000000
    3      -29.120452    -29.120862   1.000000   1.000000
    4      -29.120452    -29.120862   1.000000   1.000000
    5      -29.001191    -29.001613   1.000000   1.000000
    6      -29.000822    -29.001244   1.000000   1.000000
    7      -28.812441    -28.812844   1.000000   1.000000
    8      -28.812430    -28.812833   1.000000   1.000000
    9      -28.812430    -28.812833   1.000000   1.000000
   10      -28.798221    -28.798553   1.000000   1.000000
   11      -28.797532    -28.797865   1.000000   1.000000
   12      -28.797532    -28.797865   1.000000   1.000000
   13      -11.686792    -11.687104   1.000000   1.000000
   14      -11.686388    -11.686700   1.000000   1.000000
   15      -11.686388    -11.686700   1.000000   1.000000
   16      -11.477266    -11.477561   1.000000   1.000000
   17      -11.477249    -11.477544   1.000000   1.000000
   18       -9.510077     -9.509654   1.000000   1.000000
   19       -7.758641     -7.758646   1.000000   1.000000
   20       -7.447279     -7.447274   1.000000   1.000000
   21       -7.422028     -7.422055   1.000000   1.000000
   22       -7.422028     -7.422054   1.000000   1.000000
   23       -7.196585     -7.196801   1.000000   1.000000
   24       -7.183241     -7.183447   1.000000   1.000000
   25       -7.183241     -7.183447   1.000000   1.000000
   26       -2.789812     -2.788967   1.000000   1.000000
   27       -0.988768     -0.987714   1.000000   1.000000
   28       -0.974720     -0.973659   1.000000   1.000000
   29       -0.974720     -0.973659   1.000000   1.000000
   30       -0.399714     -0.399800   1.000000   1.000000
   31        0.582617      0.584004   1.000000   1.000000
   32        0.616773      0.618223   1.000000   1.000000
   33        2.282345      2.282510   1.000000   1.000000
   34        2.376380      2.376298   1.000000   1.000000
   35        2.376380      2.376298   1.000000   1.000000
   36        2.631151      2.630748   1.000000   1.000000
   37        2.631151      2.630748   1.000000   1.000000
   38        2.683744      2.683121   1.000000   1.000000
   39        2.904142      2.903680   1.000000   1.000000
   40        2.942958      2.942501   1.000000   1.000000
   41        3.094564      3.094118   1.000000   1.000000
   42        3.094564      3.094118   1.000000   1.000000
   43        3.138541      3.137970   1.000000   1.000000
   44        3.499351      3.498650   1.000000   1.000000
   45        3.507256      3.507662   1.000000   1.000000
   46        3.637569      3.637913   1.000000   1.000000
   47        3.637569      3.637913   1.000000   1.000000
   48        4.815396      4.815151   1.000000   1.000000
   49        4.968370      4.968148   1.000000   1.000000
   50        4.968370      4.968148   1.000000   1.000000
   51        4.989784      4.989513   1.000000   1.000000
   52        5.010941      5.010781   1.000000   1.000000
   53        6.367427      6.366678   0.104441   0.108332
   54        6.459100      6.458297   0.000059   0.000065
   55        6.459100      6.458297   0.000059   0.000065
   56        7.188390      7.189637   0.000000   0.000000
   57        8.609589      8.610830   0.000000   0.000000
   58        8.609591      8.610831   0.000000   0.000000
   59        8.732201      8.733329   0.000000   0.000000
   60        8.983080      8.984575   0.000000   0.000000
   61        9.098059      9.098992   0.000000   0.000000
   62        9.098064      9.099006   0.000000   0.000000
   63        9.305972      9.305278   0.000000   0.000000
   64        9.369703      9.369698   0.000000   0.000000
   65        9.369721      9.369716   0.000000   0.000000
   66        9.390023      9.390692   0.000000   0.000000
   67        9.966693      9.967808   0.000000   0.000000
   68        9.967147      9.967885   0.000000   0.000000
   69        9.973144      9.972561   0.000000   0.000000
   70       10.208530     10.211014   0.000000   0.000000
   71       10.446746     10.448060   0.000000   0.000000
   72       11.197540     11.192683   0.000000   0.000000
 
  0.8974359E-01  0.0000000E+00  0.8974359E-01  0.4166667E-02
    1      -29.398218    -29.398600   1.000000   1.000000