 vasp.5.4.1 24Jun15 (build Nov 23 2015 09:58:10) complex                        
  
 executed on             LinuxIFC date 2020.05.21  19:20:53
 running on   24 total cores
 distrk:  each k-point on   24 cores,    1 groups
 distr:  one band on NCORES_PER_BAND=   6 cores,    4 groups


--------------------------------------------------------------------------------------------------------


 INCAR:
 POTCAR:    PAW_PBE Ta_pv 07Sep2000               
 POTCAR:    PAW_PBE Ga_d 06Jul2010                
 POTCAR:    PAW_PBE Se 06Sep2000                  
 POTCAR:    PAW_PBE Ta_pv 07Sep2000               
   VRHFIN =Ta:  5p6s5d                                                          
   LEXCH  = PE                                                                  
   EATOM  =  1047.1984 eV,   76.9669 Ry                                         
                                                                                
   TITEL  = PAW_PBE Ta_pv 07Sep2000                                             
   LULTRA =        F    use ultrasoft PP ?                                      
   IUNSCR =        1    unscreen: 0-lin 1-nonlin 2-no                           
   RPACOR =    2.330    partial core radius                                     
   POMASS =  180.948; ZVAL   =   11.000    mass and valenz                      
   RCORE  =    2.500    outmost cutoff radius                                   
   RWIGS  =    2.840; RWIGS  =    1.503    wigner-seitz radius (au A)           
   ENMAX  =  223.667; ENMIN  =  167.750 eV                                      
   RCLOC  =    2.205    cutoff for local pot                                    
   LCOR   =        T    correct aug charges                                     
   LPAW   =        T    paw PP                                                  
   EAUG   =  377.421                                                            
   DEXC   =    0.000                                                            
   RMAX   =    2.551    core radius for proj-oper                               
   RAUG   =    1.300    factor for augmentation sphere                          
   RDEP   =    2.526    radius for radial grids                                 
   RDEPT  =    2.132    core radius for aug-charge                              
                                                                                
   Atomic configuration                                                         
   15 entries                                                                   
     n  l   j            E        occ.                                          
     1  0  0.50    -67341.2801   2.0000                                         
     2  0  0.50    -11566.9369   2.0000                                         
     2  1  1.50    -10134.1175   6.0000                                         
     3  0  0.50     -2648.5614   2.0000                                         
     3  1  1.50     -2222.6006   6.0000                                         
     3  2  2.50     -1726.3114  10.0000                                         
     4  0  0.50      -538.6957   2.0000                                         
     4  1  1.50      -399.0125   6.0000                                         
     4  2  2.50      -220.3955  10.0000                                         
     4  3  3.50       -23.0371  14.0000                                         
     5  0  0.50       -71.2900   2.0000                                         
     5  1  1.50       -37.8224   6.0000                                         
     5  2  2.50        -2.6455   4.0000                                         
     6  0  0.50        -4.9623   1.0000                                         
     5  3  2.50        -1.3606   0.0000                                         
   Description                                                                  
     l       E           TYP  RCUT    TYP  RCUT                                 
     1    -37.8224449     23  2.500                                             
     1      1.3605826     23  2.500                                             
     2     -2.6454718     23  2.500                                             
     2     -0.6258570     23  2.500                                             
     0     -4.9622674     23  2.500                                             
     0      4.7531427     23  2.500                                             
  local pseudopotential read in
  partial core-charges read in
  partial kinetic energy density read in
  atomic valenz-charges read in
  non local Contribution for L=           1  read in
    real space projection operators read in
  non local Contribution for L=           1  read in
    real space projection operators read in
  non local Contribution for L=           2  read in
    real space projection operators read in
  non local Contribution for L=           2  read in
    real space projection operators read in
  non local Contribution for L=           0  read in
    real space projection operators read in
  non local Contribution for L=           0  read in
    real space projection operators read in
    PAW grid and wavefunctions read in
 
   number of l-projection  operators is LMAX  =           6
   number of lm-projection operators is LMMAX =          18
 
 POTCAR:    PAW_PBE Ga_d 06Jul2010                
   VRHFIN =Ga: s2p1                                                             
   LEXCH  = PE                                                                  
   EATOM  =  2148.8298 eV,  157.9345 Ry                                         
                                                                                
   TITEL  = PAW_PBE Ga_d 06Jul2010                                              
   LULTRA =        F    use ultrasoft PP ?                                      
   IUNSCR =        1    unscreen: 0-lin 1-nonlin 2-no                           
   RPACOR =    1.700    partial core radius                                     
   POMASS =   69.723; ZVAL   =   13.000    mass and valenz                      
   RCORE  =    2.300    outmost cutoff radius                                   
   RWIGS  =    2.300; RWIGS  =    1.217    wigner-seitz radius (au A)           
   ENMAX  =  282.691; ENMIN  =  212.018 eV                                      
   ICORE  =        3    local potential                                         
   LCOR   =        T    correct aug charges                                     
   LPAW   =        T    paw PP                                                  
   EAUG   =  490.690                                                            
   DEXC   =    0.000                                                            
   RMAX   =    2.341    core radius for proj-oper                               
   RAUG   =    1.300    factor for augmentation sphere                          
   RDEP   =    2.413    radius for radial grids                                 
   RDEPT  =    1.856    core radius for aug-charge                              
                                                                                
   Atomic configuration                                                         
    9 entries                                                                   
     n  l   j            E        occ.                                          
     1  0  0.50    -10228.7831   2.0000                                         
     2  0  0.50     -1262.1604   2.0000                                         
     2  1  1.50     -1098.6333   6.0000                                         
     3  0  0.50      -148.1110   2.0000                                         
     3  1  1.50       -98.8436   6.0000                                         
     3  2  2.50       -19.1549  10.0000                                         
     4  0  0.50        -8.9483   2.0000                                         
     4  1  0.50        -2.5791   1.0000                                         
     4  3  2.50        -2.7416   0.0000                                         
   Description                                                                  
     l       E           TYP  RCUT    TYP  RCUT                                 
     2    -19.1549037     23  2.300                                             
     2     -5.4423304     23  2.300                                             
     0     -8.9483111     23  2.300                                             
     0     68.0291300     23  2.300                                             
     1     -2.5790802     23  2.100                                             
     1     81.6349560     23  2.300                                             
     3      6.8029130     23  2.300                                             
  local pseudopotential read in
  partial core-charges read in
  partial kinetic energy density read in
  atomic valenz-charges read in
  non local Contribution for L=           2  read in
    real space projection operators read in
  non local Contribution for L=           2  read in
    real space projection operators read in
  non local Contribution for L=           0  read in
    real space projection operators read in
  non local Contribution for L=           0  read in
    real space projection operators read in
  non local Contribution for L=           1  read in
    real space projection operators read in
  non local Contribution for L=           1  read in
    real space projection operators read in
    PAW grid and wavefunctions read in
 
   number of l-projection  operators is LMAX  =           6
   number of lm-projection operators is LMMAX =          18
 
 POTCAR:    PAW_PBE Se 06Sep2000                  
   VRHFIN =Se: s2p4                                                             
   LEXCH  = PE                                                                  
   EATOM  =   257.1286 eV,   18.8984 Ry                                         
                                                                                
   TITEL  = PAW_PBE Se 06Sep2000                                                
   LULTRA =        F    use ultrasoft PP ?                                      
   IUNSCR =        1    unscreen: 0-lin 1-nonlin 2-no                           
   RPACOR =    1.900    partial core radius                                     
   POMASS =   78.960; ZVAL   =    6.000    mass and valenz                      
   RCORE  =    2.100    outmost cutoff radius                                   
   RWIGS  =    2.200; RWIGS  =    1.164    wigner-seitz radius (au A)           
   ENMAX  =  211.555; ENMIN  =  158.666 eV                                      
   ICORE  =        3    local potential                                         
   LCOR   =        T    correct aug charges                                     
   LPAW   =        T    paw PP                                                  
   EAUG   =  446.842                                                            
   DEXC   =    0.000                                                            
   RMAX   =    2.147    core radius for proj-oper                               
   RAUG   =    1.300    factor for augmentation sphere                          
   RDEP   =    2.177    radius for radial grids                                 
   RDEPT  =    1.928    core radius for aug-charge                              
                                                                                
   Atomic configuration                                                         
   10 entries                                                                   
     n  l   j            E        occ.                                          
     1  0  0.50    -12503.4787   2.0000                                         
     2  0  0.50     -1606.9547   2.0000                                         
     2  1  1.50     -1413.3140   6.0000                                         
     3  0  0.50      -213.4885   2.0000                                         
     3  1  1.50      -152.9538   6.0000                                         
     3  2  2.50       -53.1221  10.0000                                         
     4  0  0.50       -17.2865   2.0000                                         
     4  1  0.50        -6.5110   4.0000                                         
     4  2  2.50        -6.8029   0.0000                                         
     4  3  2.50        -6.8029   0.0000                                         
   Description                                                                  
     l       E           TYP  RCUT    TYP  RCUT                                 
     0    -17.2865377     23  2.100                                             
     0    -15.3094411     23  2.100                                             
     1     -6.5110275     23  2.100                                             
     1     -0.0695192     23  2.100                                             
     2     -6.8029130     23  2.100                                             
     3     -1.3605826      7  2.100                                             
  local pseudopotential read in
  partial core-charges read in
  partial kinetic energy density read in
  atomic valenz-charges read in
  non local Contribution for L=           0  read in
    real space projection operators read in
  non local Contribution for L=           0  read in
    real space projection operators read in
  non local Contribution for L=           1  read in
    real space projection operators read in
  non local Contribution for L=           1  read in
    real space projection operators read in
  non local Contribution for L=           2  read in
    real space projection operators read in
    PAW grid and wavefunctions read in
 
   number of l-projection  operators is LMAX  =           5
   number of lm-projection operators is LMMAX =          13
 
  PAW_PBE Ta_pv 07Sep2000               :
 energy of atom  1       EATOM=-1047.1984
 kinetic energy error for atom=    0.0016 (will be added to EATOM!!)
  PAW_PBE Ga_d 06Jul2010                :
 energy of atom  2       EATOM=-2148.8298
 kinetic energy error for atom=    0.0026 (will be added to EATOM!!)
  PAW_PBE Se 06Sep2000                  :
 energy of atom  3       EATOM= -257.1286
 kinetic energy error for atom=    0.0007 (will be added to EATOM!!)
 
 
 POSCAR: Ta4 Ga1 Se8                             
  positions in direct lattice
  velocities in cartesian coordinates
 exchange correlation table for  LEXCH =        8
   RHO(1)=    0.500       N(1)  =     2000
   RHO(2)=  100.500       N(2)  =     4000
 


--------------------------------------------------------------------------------------------------------


 ion  position               nearest neighbor table
   1  0.604  0.604  0.189-   9 2.49   8 2.49   7 2.49  13 2.66  12 2.66  11 2.66   2 2.93   3 2.93
                             4 2.93
   2  0.604  0.189  0.604-   8 2.49   6 2.49   9 2.49  13 2.66  12 2.66  10 2.66   1 2.93   3 2.93
                             4 2.93
   3  0.189  0.604  0.604-   7 2.49   6 2.49   9 2.49  13 2.66  11 2.66  10 2.66   1 2.93   2 2.93
                             4 2.93
   4  0.604  0.604  0.604-   6 2.49   7 2.49   8 2.49  10 2.66  11 2.66  12 2.66   1 2.93   2 2.93
                             3 2.93
   5  0.000  0.000  0.000-  10 2.31  11 2.31  12 2.31  13 2.31
   6  0.360  0.360  0.920-   4 2.49   3 2.49   2 2.49
   7  0.360  0.920  0.360-   3 2.49   1 2.49   4 2.49
   8  0.920  0.360  0.360-   2 2.49   1 2.49   4 2.49
   9  0.360  0.360  0.360-   1 2.49   2 2.49   3 2.49
  10  0.867  0.867  0.400-   5 2.31   4 2.66   2 2.66   3 2.66
  11  0.867  0.400  0.867-   5 2.31   4 2.66   1 2.66   3 2.66
  12  0.400  0.867  0.867-   5 2.31   4 2.66   1 2.66   2 2.66
  13  0.867  0.867  0.867-   5 2.31   2 2.66   3 2.66   1 2.66
 
  LATTYP: Found a face centered cubic cell.
 ALAT       =     9.9940000000
  
  Lattice vectors:
  
 A1 = (   0.0000000000,   4.9970000000,   4.9970000000)
 A2 = (   4.9970000000,   0.0000000000,   4.9970000000)
 A3 = (   4.9970000000,   4.9970000000,   0.0000000000)


Analysis of symmetry for initial positions (statically):
=====================================================================
 Subroutine PRICEL returns:
 Original cell was already a primitive cell.
 

 Routine SETGRP: Setting up the symmetry group for a 
 face centered cubic supercell.


 Subroutine GETGRP returns: Found 24 space group operations
 (whereof 24 operations were pure point group operations)
 out of a pool of 48 trial point group operations.


The static configuration has the point symmetry T_d .


Analysis of symmetry for dynamics (positions and initial velocities):
=====================================================================
 Subroutine PRICEL returns:
 Original cell was already a primitive cell.
 

 Routine SETGRP: Setting up the symmetry group for a 
 face centered cubic supercell.


 Subroutine GETGRP returns: Found 24 space group operations
 (whereof 24 operations were pure point group operations)
 out of a pool of 48 trial point group operations.


The dynamic configuration has the point symmetry T_d .


Analysis of magnetic symmetry:
=====================================================================
 Subroutine PRICEL returns:
 Original cell was already a primitive cell.
 

 Subroutine MAGSYM returns: Found 24 space group operations
 (whereof 24 operations were pure point group operations)
 out of a pool of 24 trial space group operations
 (whereof 24 operations were pure point group operations)
 and found also     1 'primitive' translations


The magnetic configuration has the point symmetry T_d .
 
 
 KPOINTS: k-points along high symmetry lines      
  interpolating k-points between supplied coordinates
  k-points in reciprocal lattice
Space group operators:
 irot       det(A)        alpha          n_x          n_y          n_z        tau_x        tau_y        tau_z
    1     1.000000     0.000000     1.000000     0.000000     0.000000     0.000000     0.000000     0.000000
    2     1.000000   120.000000    -0.577350    -0.577350    -0.577350     0.000000     0.000000     0.000000
    3     1.000000   120.000000     0.577350     0.577350     0.577350     0.000000     0.000000     0.000000
    4    -1.000000    90.000000     0.000000     0.000000    -1.000000     0.000000     0.000000     0.000000
    5    -1.000000   180.000000     0.000000     0.707107     0.707107     0.000000     0.000000     0.000000
    6    -1.000000    90.000000     0.000000     1.000000     0.000000     0.000000     0.000000     0.000000
    7     1.000000   180.000000     0.000000     0.000000     1.000000     0.000000     0.000000     0.000000
    8     1.000000   120.000000    -0.577350     0.577350     0.577350     0.000000     0.000000     0.000000
    9     1.000000   120.000000    -0.577350     0.577350    -0.577350     0.000000     0.000000     0.000000
   10    -1.000000    90.000000     0.000000     0.000000     1.000000     0.000000     0.000000     0.000000
   11    -1.000000    90.000000    -1.000000     0.000000     0.000000     0.000000     0.000000     0.000000
   12    -1.000000   180.000000     0.707107     0.000000     0.707107     0.000000     0.000000     0.000000
   13     1.000000   120.000000     0.577350    -0.577350     0.577350     0.000000     0.000000     0.000000
   14     1.000000   120.000000    -0.577350    -0.577350     0.577350     0.000000     0.000000     0.000000
   15     1.000000   180.000000     1.000000     0.000000     0.000000     0.000000     0.000000     0.000000
   16    -1.000000    90.000000     0.000000    -1.000000     0.000000     0.000000     0.000000     0.000000
   17    -1.000000   180.000000     0.707107     0.707107     0.000000     0.000000     0.000000     0.000000
   18    -1.000000    90.000000     1.000000     0.000000     0.000000     0.000000     0.000000     0.000000
   19     1.000000   120.000000     0.577350    -0.577350    -0.577350     0.000000     0.000000     0.000000
   20     1.000000   180.000000     0.000000     1.000000     0.000000     0.000000     0.000000     0.000000
   21     1.000000   120.000000     0.577350     0.577350    -0.577350     0.000000     0.000000     0.000000
   22    -1.000000   180.000000     0.000000    -0.707107     0.707107     0.000000     0.000000     0.000000
   23    -1.000000   180.000000     0.707107    -0.707107     0.000000     0.000000     0.000000     0.000000
   24    -1.000000   180.000000     0.707107     0.000000    -0.707107     0.000000     0.000000     0.000000


--------------------------------------------------------------------------------------------------------




 Dimension of arrays:
   k-points           NKPTS =    240   k-points in BZ     NKDIM =    240   number of bands    NBANDS=     72
   number of dos      NEDOS =    301   number of ions     NIONS =     13
   non local maximal  LDIM  =      6   non local SUM 2l+1 LMDIM =     18
   total plane-waves  NPLWV = 157464
   max r-space proj   IRMAX =      1   max aug-charges    IRDMAX= 283758
   dimension x,y,z NGX =    54 NGY =   54 NGZ =   54
   dimension x,y,z NGXF=   108 NGYF=  108 NGZF=  108
   support grid    NGXF=   216 NGYF=  216 NGZF=  216
   ions per type =               4   1   8
 NGX,Y,Z   is equivalent  to a cutoff of  12.70, 12.70, 12.70 a.u.
 NGXF,Y,Z  is equivalent  to a cutoff of  25.41, 25.41, 25.41 a.u.


 I would recommend the setting:
   dimension x,y,z NGX =    53 NGY =   53 NGZ =   53
 SYSTEM =  matgen                                  
 POSCAR =  Ta4 Ga1 Se8                             

 Startparameter for this run:
   NWRITE =      2    write-flag & timer
   PREC   = accura    normal or accurate (medium, high low for compatibility)
   ISTART =      0    job   : 0-new  1-cont  2-samecut
   ICHARG =     11    charge: 1-file 2-atom 10-const
   ISPIN  =      2    spin polarized calculation?
   LNONCOLLINEAR =      F non collinear calculations
   LSORBIT =      F    spin-orbit coupling
   INIWAV =      1    electr: 0-lowe 1-rand  2-diag
   LASPH  =      F    aspherical Exc in radial PAW
   METAGGA=      F    non-selfconsistent MetaGGA calc.

 Electronic Relaxation 1
   ENCUT  =  520.0 eV  38.22 Ry    6.18 a.u.  13.14 13.14 13.14*2*pi/ulx,y,z
   ENINI  =  520.0     initial cutoff
   ENAUG  =  490.7 eV  augmentation charge cutoff
   NELM   =    140;   NELMIN=  6; NELMDL=  0     # of ELM steps 
   EDIFF  = 0.1E-03   stopping-criterion for ELM
   LREAL  =      F    real-space projection
   NLSPLINE    = F    spline interpolate recip. space projectors
   LCOMPAT=      F    compatible to vasp.4.4
   GGA_COMPAT  = T    GGA compatible to vasp.4.4-vasp.4.6
   LMAXPAW     = -100 max onsite density
   LMAXMIX     =    4 max onsite mixed and CHGCAR
   VOSKOWN=      0    Vosko Wilk Nusair interpolation
   ROPT   =    0.00000   0.00000   0.00000
 Ionic relaxation
   EDIFFG = -.1E-02   stopping-criterion for IOM
   NSW    =      0    number of steps for IOM
   NBLOCK =      1;   KBLOCK =      1    inner block; outer block 
   IBRION =     -1    ionic relax: 0-MD 1-quasi-New 2-CG
   NFREE  =      0    steps in history (QN), initial steepest desc. (CG)
   ISIF   =      0    stress and relaxation
   IWAVPR =     10    prediction:  0-non 1-charg 2-wave 3-comb
   ISYM   =      2    0-nonsym 1-usesym 2-fastsym
   LCORR  =      T    Harris-Foulkes like correction to forces

   POTIM  = 0.0500    time-step for ionic-motion
   TEIN   =    0.0    initial temperature
   TEBEG  =    0.0;   TEEND  =   0.0 temperature during run
   SMASS  =  -3.00    Nose mass-parameter (am)
   estimated Nose-frequenzy (Omega)   =  0.10E-29 period in steps =****** mass=  -0.114E-26a.u.
   SCALEE = 1.0000    scale energy and forces
   NPACO  =    256;   APACO  = 16.0  distance and # of slots for P.C.
   PSTRESS=    0.0 pullay stress

  Mass of Ions in am
   POMASS = 180.95 69.72 78.96
  Ionic Valenz
   ZVAL   =  11.00 13.00  6.00
  Atomic Wigner-Seitz radii
   RWIGS  =  -1.00 -1.00 -1.00
  virtual crystal weights 
   VCA    =   1.00  1.00  1.00
   NELECT =     105.0000    total number of electrons
   NUPDOWN=      -1.0000    fix difference up-down

 DOS related values:
   EMIN   =  10.00;   EMAX   =-10.00  energy-range for DOS
   EFERMI =   0.00
   ISMEAR =     0;   SIGMA  =   0.05  broadening in eV -4-tet -1-fermi 0-gaus

 Electronic relaxation 2 (details)
   IALGO  =     38    algorithm
   LDIAG  =      T    sub-space diagonalisation (order eigenvalues)
   LSUBROT=      F    optimize rotation matrix (better conditioning)
   TURBO    =      0    0=normal 1=particle mesh
   IRESTART =      0    0=no restart 2=restart with 2 vectors
   NREBOOT  =      0    no. of reboots
   NMIN     =      0    reboot dimension
   EREF     =   0.00    reference energy to select bands
   IMIX   =      4    mixing-type and parameters
     AMIX     =   0.10;   BMIX     =  1.20
     AMIX_MAG =   0.40;   BMIX_MAG =  1.20
     AMIN     =   0.10
     WC   =   100.;   INIMIX=   1;  MIXPRE=   1;  MAXMIX= -45

 Intra band minimization:
   WEIMIN = 0.0000     energy-eigenvalue tresh-hold
   EBREAK =  0.35E-06  absolut break condition
   DEPER  =   0.30     relativ break condition  

   TIME   =   0.40     timestep for ELM

  volume/ion in A,a.u.               =      19.20       129.54
  Fermi-wavevector in a.u.,A,eV,Ry     =   1.226738  2.318199 20.475228  1.504887
  Thomas-Fermi vector in A             =   2.361728
 
 Write flags
   LWAVE  =      F    write WAVECAR
   LCHARG =      F    write CHGCAR
   LVTOT  =      F    write LOCPOT, total local potential
   LVHAR  =      F    write LOCPOT, Hartree potential only
   LELF   =      F    write electronic localiz. function (ELF)
   LORBIT =     11    0 simple, 1 ext, 2 COOP (PROOUT)


 Dipole corrections
   LMONO  =      F    monopole corrections only (constant potential shift)
   LDIPOL =      F    correct potential (dipole corrections)
   IDIPOL =      0    1-x, 2-y, 3-z, 4-all directions 
   EPSILON=  1.0000000 bulk dielectric constant

 LDA+U is selected, type is set to LDAUTYPE =  2
   angular momentum for each species LDAUL =     2    2   -1
   U (eV)           for each species LDAUU =   2.0  3.9  0.0
   J (eV)           for each species LDAUJ =   0.0  0.0  0.0
 Exchange correlation treatment:
   GGA     =    --    GGA type
   LEXCH   =     8    internal setting for exchange type
   VOSKOWN=      0    Vosko Wilk Nusair interpolation
   LHFCALC =     F    Hartree Fock is set to
   LHFONE  =     F    Hartree Fock one center treatment
   AEXX    =    0.0000 exact exchange contribution

 Linear response parameters
   LEPSILON=     F    determine dielectric tensor
   LRPA    =     F    only Hartree local field effects (RPA)
   LNABLA  =     F    use nabla operator in PAW spheres
   LVEL    =     F    velocity operator in full k-point grid
   LINTERFAST=   F  fast interpolation
   KINTER  =     0    interpolate to denser k-point grid
   CSHIFT  =0.1000    complex shift for real part using Kramers Kronig
   OMEGAMAX=  -1.0    maximum frequency
   DEG_THRESHOLD= 0.2000000E-02 threshold for treating states as degnerate
   RTIME   =    0.100 relaxation time in fs

 Orbital magnetization related:
   ORBITALMAG=     F  switch on orbital magnetization
   LCHIMAG   =     F  perturbation theory with respect to B field
   DQ        =  0.001000  dq finite difference perturbation B field



--------------------------------------------------------------------------------------------------------


 Static calculation
 charge density and potential remain constant during run
 spin polarized calculation
 Variant of blocked Davidson
 Davidson routine will perform the subspace rotation
 perform sub-space diagonalisation
    after iterative eigenvector-optimisation
 no mixing
 using additional bands           19
 reciprocal scheme for non local part
 use partial core corrections
 calculate Harris-corrections to forces 
   (improved forces if not selfconsistent)
 use gradient corrections 
 WARNING: stress and forces are not correct
  (second derivative of E(xc) not defined)
 use of overlap-Matrix (Vanderbilt PP)
 Gauss-broadening in eV      SIGMA  =   0.05


--------------------------------------------------------------------------------------------------------


  energy-cutoff  :      520.00
  volume of cell :      249.55
      direct lattice vectors                 reciprocal lattice vectors
     0.000000000  4.997000000  4.997000000    -0.100060036  0.100060036  0.100060036
     4.997000000  0.000000000  4.997000000     0.100060036 -0.100060036  0.100060036
     4.997000000  4.997000000  0.000000000     0.100060036  0.100060036 -0.100060036

  length of vectors
     7.066825171  7.066825171  7.066825171     0.173309066  0.173309066  0.173309066


 
 k-points in units of 2pi/SCALE and weight: k-points along high symmetry lines      
   0.00000000  0.00000000  0.00000000       0.004
   0.00000000  0.00256564  0.00000000       0.004
   0.00000000  0.00513128  0.00000000       0.004
   0.00000000  0.00769693  0.00000000       0.004
   0.00000000  0.01026257  0.00000000       0.004
   0.00000000  0.01282821  0.00000000       0.004
   0.00000000  0.01539385  0.00000000       0.004
   0.00000000  0.01795949  0.00000000       0.004
   0.00000000  0.02052514  0.00000000       0.004
   0.00000000  0.02309078  0.00000000       0.004
   0.00000000  0.02565642  0.00000000       0.004
   0.00000000  0.02822206  0.00000000       0.004
   0.00000000  0.03078770  0.00000000       0.004
   0.00000000  0.03335335  0.00000000       0.004
   0.00000000  0.03591899  0.00000000       0.004
   0.00000000  0.03848463  0.00000000       0.004
   0.00000000  0.04105027  0.00000000       0.004
   0.00000000  0.04361591  0.00000000       0.004
   0.00000000  0.04618156  0.00000000       0.004
   0.00000000  0.04874720  0.00000000       0.004
   0.00000000  0.05131284  0.00000000       0.004
   0.00000000  0.05387848  0.00000000       0.004
   0.00000000  0.05644412  0.00000000       0.004
   0.00000000  0.05900976  0.00000000       0.004
   0.00000000  0.06157541  0.00000000       0.004
   0.00000000  0.06414105  0.00000000       0.004
   0.00000000  0.06670669  0.00000000       0.004
   0.00000000  0.06927233  0.00000000       0.004
   0.00000000  0.07183797  0.00000000       0.004
   0.00000000  0.07440362  0.00000000       0.004
   0.00000000  0.07696926  0.00000000       0.004
   0.00000000  0.07953490  0.00000000       0.004
   0.00000000  0.08210054  0.00000000       0.004
   0.00000000  0.08466618  0.00000000       0.004
   0.00000000  0.08723183  0.00000000       0.004
   0.00000000  0.08979747  0.00000000       0.004
   0.00000000  0.09236311  0.00000000       0.004
   0.00000000  0.09492875  0.00000000       0.004
   0.00000000  0.09749439  0.00000000       0.004
   0.00000000  0.10006004  0.00000000       0.004
   0.00000000  0.10006004  0.00000000       0.004
   0.00064141  0.10006004  0.00064141       0.004
   0.00128282  0.10006004  0.00128282       0.004
   0.00192423  0.10006004  0.00192423       0.004
   0.00256564  0.10006004  0.00256564       0.004
   0.00320705  0.10006004  0.00320705       0.004
   0.00384846  0.10006004  0.00384846       0.004
   0.00448987  0.10006004  0.00448987       0.004
   0.00513128  0.10006004  0.00513128       0.004
   0.00577269  0.10006004  0.00577269       0.004
   0.00641410  0.10006004  0.00641410       0.004
   0.00705552  0.10006004  0.00705552       0.004
   0.00769693  0.10006004  0.00769693       0.004
   0.00833834  0.10006004  0.00833834       0.004
   0.00897975  0.10006004  0.00897975       0.004
   0.00962116  0.10006004  0.00962116       0.004
   0.01026257  0.10006004  0.01026257       0.004
   0.01090398  0.10006004  0.01090398       0.004
   0.01154539  0.10006004  0.01154539       0.004
   0.01218680  0.10006004  0.01218680       0.004
   0.01282821  0.10006004  0.01282821       0.004
   0.01346962  0.10006004  0.01346962       0.004
   0.01411103  0.10006004  0.01411103       0.004
   0.01475244  0.10006004  0.01475244       0.004
   0.01539385  0.10006004  0.01539385       0.004
   0.01603526  0.10006004  0.01603526       0.004
   0.01667667  0.10006004  0.01667667       0.004
   0.01731808  0.10006004  0.01731808       0.004
   0.01795949  0.10006004  0.01795949       0.004
   0.01860090  0.10006004  0.01860090       0.004
   0.01924231  0.10006004  0.01924231       0.004
   0.01988373  0.10006004  0.01988373       0.004
   0.02052514  0.10006004  0.02052514       0.004
   0.02116655  0.10006004  0.02116655       0.004
   0.02180796  0.10006004  0.02180796       0.004
   0.02244937  0.10006004  0.02244937       0.004
   0.02309078  0.10006004  0.02309078       0.004
   0.02373219  0.10006004  0.02373219       0.004
   0.02437360  0.10006004  0.02437360       0.004
   0.02501501  0.10006004  0.02501501       0.004
   0.07504503  0.07504503  0.00000000       0.004
   0.07312080  0.07312080  0.00000000       0.004
   0.07119656  0.07119656  0.00000000       0.004
   0.06927233  0.06927233  0.00000000       0.004
   0.06734810  0.06734810  0.00000000       0.004
   0.06542387  0.06542387  0.00000000       0.004
   0.06349964  0.06349964  0.00000000       0.004
   0.06157541  0.06157541  0.00000000       0.004
   0.05965118  0.05965118  0.00000000       0.004
   0.05772694  0.05772694  0.00000000       0.004
   0.05580271  0.05580271  0.00000000       0.004
   0.05387848  0.05387848  0.00000000       0.004
   0.05195425  0.05195425  0.00000000       0.004
   0.05003002  0.05003002  0.00000000       0.004
   0.04810579  0.04810579  0.00000000       0.004
   0.04618156  0.04618156  0.00000000       0.004
   0.04425732  0.04425732  0.00000000       0.004
   0.04233309  0.04233309  0.00000000       0.004
   0.04040886  0.04040886  0.00000000       0.004
   0.03848463  0.03848463  0.00000000       0.004
   0.03656040  0.03656040  0.00000000       0.004
   0.03463617  0.03463617  0.00000000       0.004
   0.03271193  0.03271193  0.00000000       0.004
   0.03078770  0.03078770  0.00000000       0.004
   0.02886347  0.02886347  0.00000000       0.004
   0.02693924  0.02693924  0.00000000       0.004
   0.02501501  0.02501501  0.00000000       0.004
   0.02309078  0.02309078  0.00000000       0.004
   0.02116655  0.02116655  0.00000000       0.004
   0.01924231  0.01924231  0.00000000       0.004
   0.01731808  0.01731808  0.00000000       0.004
   0.01539385  0.01539385  0.00000000       0.004
   0.01346962  0.01346962  0.00000000       0.004
   0.01154539  0.01154539  0.00000000       0.004
   0.00962116  0.00962116  0.00000000       0.004
   0.00769693  0.00769693  0.00000000       0.004
   0.00577269  0.00577269  0.00000000       0.004
   0.00384846  0.00384846  0.00000000       0.004
   0.00192423  0.00192423  0.00000000       0.004
   0.00000000  0.00000000  0.00000000       0.004
   0.00000000  0.00000000  0.00000000       0.004
   0.00128282  0.00128282  0.00128282       0.004
   0.00256564  0.00256564  0.00256564       0.004
   0.00384846  0.00384846  0.00384846       0.004
   0.00513128  0.00513128  0.00513128       0.004
   0.00641410  0.00641410  0.00641410       0.004
   0.00769693  0.00769693  0.00769693       0.004
   0.00897975  0.00897975  0.00897975       0.004
   0.01026257  0.01026257  0.01026257       0.004
   0.01154539  0.01154539  0.01154539       0.004
   0.01282821  0.01282821  0.01282821       0.004
   0.01411103  0.01411103  0.01411103       0.004
   0.01539385  0.01539385  0.01539385       0.004
   0.01667667  0.01667667  0.01667667       0.004
   0.01795949  0.01795949  0.01795949       0.004
   0.01924231  0.01924231  0.01924231       0.004
   0.02052514  0.02052514  0.02052514       0.004
   0.02180796  0.02180796  0.02180796       0.004
   0.02309078  0.02309078  0.02309078       0.004
   0.02437360  0.02437360  0.02437360       0.004
   0.02565642  0.02565642  0.02565642       0.004
   0.02693924  0.02693924  0.02693924       0.004
   0.02822206  0.02822206  0.02822206       0.004
   0.02950488  0.02950488  0.02950488       0.004
   0.03078770  0.03078770  0.03078770       0.004
   0.03207052  0.03207052  0.03207052       0.004
   0.03335335  0.03335335  0.03335335       0.004
   0.03463617  0.03463617  0.03463617       0.004
   0.03591899  0.03591899  0.03591899       0.004
   0.03720181  0.03720181  0.03720181       0.004
   0.03848463  0.03848463  0.03848463       0.004
   0.03976745  0.03976745  0.03976745       0.004
   0.04105027  0.04105027  0.04105027       0.004
   0.04233309  0.04233309  0.04233309       0.004
   0.04361591  0.04361591  0.04361591       0.004
   0.04489873  0.04489873  0.04489873       0.004
   0.04618156  0.04618156  0.04618156       0.004
   0.04746438  0.04746438  0.04746438       0.004
   0.04874720  0.04874720  0.04874720       0.004
   0.05003002  0.05003002  0.05003002       0.004
   0.05003002  0.05003002  0.05003002       0.004
   0.05003002  0.05131284  0.04874720       0.004
   0.05003002  0.05259566  0.04746438       0.004
   0.05003002  0.05387848  0.04618156       0.004
   0.05003002  0.05516130  0.04489873       0.004
   0.05003002  0.05644412  0.04361591       0.004
   0.05003002  0.05772694  0.04233309       0.004
   0.05003002  0.05900976  0.04105027       0.004
   0.05003002  0.06029259  0.03976745       0.004
   0.05003002  0.06157541  0.03848463       0.004
   0.05003002  0.06285823  0.03720181       0.004
   0.05003002  0.06414105  0.03591899       0.004
   0.05003002  0.06542387  0.03463617       0.004
   0.05003002  0.06670669  0.03335335       0.004
   0.05003002  0.06798951  0.03207052       0.004
   0.05003002  0.06927233  0.03078770       0.004
   0.05003002  0.07055515  0.02950488       0.004
   0.05003002  0.07183797  0.02822206       0.004
   0.05003002  0.07312080  0.02693924       0.004
   0.05003002  0.07440362  0.02565642       0.004
   0.05003002  0.07568644  0.02437360       0.004
   0.05003002  0.07696926  0.02309078       0.004
   0.05003002  0.07825208  0.02180796       0.004
   0.05003002  0.07953490  0.02052514       0.004
   0.05003002  0.08081772  0.01924231       0.004
   0.05003002  0.08210054  0.01795949       0.004
   0.05003002  0.08338336  0.01667667       0.004
   0.05003002  0.08466618  0.01539385       0.004
   0.05003002  0.08594901  0.01411103       0.004
   0.05003002  0.08723183  0.01282821       0.004
   0.05003002  0.08851465  0.01154539       0.004
   0.05003002  0.08979747  0.01026257       0.004
   0.05003002  0.09108029  0.00897975       0.004
   0.05003002  0.09236311  0.00769693       0.004
   0.05003002  0.09364593  0.00641410       0.004
   0.05003002  0.09492875  0.00513128       0.004
   0.05003002  0.09621157  0.00384846       0.004
   0.05003002  0.09749439  0.00256564       0.004
   0.05003002  0.09877722  0.00128282       0.004
   0.05003002  0.10006004  0.00000000       0.004
   0.05003002  0.10006004  0.00000000       0.004
   0.04874720  0.10006004  0.00000000       0.004
   0.04746438  0.10006004  0.00000000       0.004
   0.04618156  0.10006004  0.00000000       0.004
   0.04489873  0.10006004  0.00000000       0.004
   0.04361591  0.10006004  0.00000000       0.004
   0.04233309  0.10006004  0.00000000       0.004
   0.04105027  0.10006004  0.00000000       0.004
   0.03976745  0.10006004  0.00000000       0.004
   0.03848463  0.10006004  0.00000000       0.004
   0.03720181  0.10006004  0.00000000       0.004
   0.03591899  0.10006004 -0.00000000       0.004
   0.03463617  0.10006004 -0.00000000       0.004
   0.03335335  0.10006004  0.00000000       0.004
   0.03207052  0.10006004  0.00000000       0.004
   0.03078770  0.10006004  0.00000000       0.004
   0.02950488  0.10006004  0.00000000       0.004
   0.02822206  0.10006004  0.00000000       0.004
   0.02693924  0.10006004  0.00000000       0.004
   0.02565642  0.10006004  0.00000000       0.004
   0.02437360  0.10006004  0.00000000       0.004
   0.02309078  0.10006004  0.00000000       0.004
   0.02180796  0.10006004 -0.00000000       0.004
   0.02052514  0.10006004  0.00000000       0.004
   0.01924231  0.10006004  0.00000000       0.004
   0.01795949  0.10006004  0.00000000       0.004
   0.01667667  0.10006004 -0.00000000       0.004
   0.01539385  0.10006004  0.00000000       0.004
   0.01411103  0.10006004  0.00000000       0.004
   0.01282821  0.10006004  0.00000000       0.004
   0.01154539  0.10006004  0.00000000       0.004
   0.01026257  0.10006004 -0.00000000       0.004
   0.00897975  0.10006004 -0.00000000       0.004
   0.00769693  0.10006004  0.00000000       0.004
   0.00641410  0.10006004  0.00000000       0.004
   0.00513128  0.10006004  0.00000000       0.004
   0.00384846  0.10006004  0.00000000       0.004
   0.00256564  0.10006004  0.00000000       0.004
   0.00128282  0.10006004  0.00000000       0.004
   0.00000000  0.10006004  0.00000000       0.004
 
 k-points in reciprocal lattice and weights: k-points along high symmetry lines      
   0.00000000  0.00000000  0.00000000       0.004
   0.01282051  0.00000000  0.01282051       0.004
   0.02564103  0.00000000  0.02564103       0.004
   0.03846154  0.00000000  0.03846154       0.004
   0.05128205  0.00000000  0.05128205       0.004
   0.06410256  0.00000000  0.06410256       0.004
   0.07692308  0.00000000  0.07692308       0.004
   0.08974359  0.00000000  0.08974359       0.004
   0.10256410  0.00000000  0.10256410       0.004
   0.11538462  0.00000000  0.11538462       0.004
   0.12820513  0.00000000  0.12820513       0.004
   0.14102564  0.00000000  0.14102564       0.004
   0.15384615  0.00000000  0.15384615       0.004
   0.16666667  0.00000000  0.16666667       0.004
   0.17948718  0.00000000  0.17948718       0.004
   0.19230769  0.00000000  0.19230769       0.004
   0.20512821  0.00000000  0.20512821       0.004
   0.21794872  0.00000000  0.21794872       0.004
   0.23076923  0.00000000  0.23076923       0.004
   0.24358974  0.00000000  0.24358974       0.004
   0.25641026  0.00000000  0.25641026       0.004
   0.26923077  0.00000000  0.26923077       0.004
   0.28205128  0.00000000  0.28205128       0.004
   0.29487179  0.00000000  0.29487179       0.004
   0.30769231  0.00000000  0.30769231       0.004
   0.32051282  0.00000000  0.32051282       0.004
   0.33333333  0.00000000  0.33333333       0.004
   0.34615385  0.00000000  0.34615385       0.004
   0.35897436  0.00000000  0.35897436       0.004
   0.37179487  0.00000000  0.37179487       0.004
   0.38461538  0.00000000  0.38461538       0.004
   0.39743590  0.00000000  0.39743590       0.004
   0.41025641  0.00000000  0.41025641       0.004
   0.42307692  0.00000000  0.42307692       0.004
   0.43589744  0.00000000  0.43589744       0.004
   0.44871795  0.00000000  0.44871795       0.004
   0.46153846  0.00000000  0.46153846       0.004
   0.47435897  0.00000000  0.47435897       0.004
   0.48717949  0.00000000  0.48717949       0.004
   0.50000000  0.00000000  0.50000000       0.004
   0.50000000  0.00000000  0.50000000       0.004
   0.50320513  0.00641026  0.50320513       0.004
   0.50641026  0.01282051  0.50641026       0.004
   0.50961538  0.01923077  0.50961538       0.004
   0.51282051  0.02564103  0.51282051       0.004
   0.51602564  0.03205128  0.51602564       0.004
   0.51923077  0.03846154  0.51923077       0.004
   0.52243590  0.04487179  0.52243590       0.004
   0.52564103  0.05128205  0.52564103       0.004
   0.52884615  0.05769231  0.52884615       0.004
   0.53205128  0.06410256  0.53205128       0.004
   0.53525641  0.07051282  0.53525641       0.004
   0.53846154  0.07692308  0.53846154       0.004
   0.54166667  0.08333333  0.54166667       0.004
   0.54487179  0.08974359  0.54487179       0.004
   0.54807692  0.09615385  0.54807692       0.004
   0.55128205  0.10256410  0.55128205       0.004
   0.55448718  0.10897436  0.55448718       0.004
   0.55769231  0.11538462  0.55769231       0.004
   0.56089744  0.12179487  0.56089744       0.004
   0.56410256  0.12820513  0.56410256       0.004
   0.56730769  0.13461538  0.56730769       0.004
   0.57051282  0.14102564  0.57051282       0.004
   0.57371795  0.14743590  0.57371795       0.004
   0.57692308  0.15384615  0.57692308       0.004
   0.58012821  0.16025641  0.58012821       0.004
   0.58333333  0.16666667  0.58333333       0.004
   0.58653846  0.17307692  0.58653846       0.004
   0.58974359  0.17948718  0.58974359       0.004
   0.59294872  0.18589744  0.59294872       0.004
   0.59615385  0.19230769  0.59615385       0.004
   0.59935897  0.19871795  0.59935897       0.004
   0.60256410  0.20512821  0.60256410       0.004
   0.60576923  0.21153846  0.60576923       0.004
   0.60897436  0.21794872  0.60897436       0.004
   0.61217949  0.22435897  0.61217949       0.004
   0.61538462  0.23076923  0.61538462       0.004
   0.61858974  0.23717949  0.61858974       0.004
   0.62179487  0.24358974  0.62179487       0.004
   0.62500000  0.25000000  0.62500000       0.004
   0.37500000  0.37500000  0.75000000       0.004
   0.36538462  0.36538462  0.73076923       0.004
   0.35576923  0.35576923  0.71153846       0.004
   0.34615385  0.34615385  0.69230769       0.004
   0.33653846  0.33653846  0.67307692       0.004
   0.32692308  0.32692308  0.65384615       0.004
   0.31730769  0.31730769  0.63461538       0.004
   0.30769231  0.30769231  0.61538462       0.004
   0.29807692  0.29807692  0.59615385       0.004
   0.28846154  0.28846154  0.57692308       0.004
   0.27884615  0.27884615  0.55769231       0.004
   0.26923077  0.26923077  0.53846154       0.004
   0.25961538  0.25961538  0.51923077       0.004
   0.25000000  0.25000000  0.50000000       0.004
   0.24038462  0.24038462  0.48076923       0.004
   0.23076923  0.23076923  0.46153846       0.004
   0.22115385  0.22115385  0.44230769       0.004
   0.21153846  0.21153846  0.42307692       0.004
   0.20192308  0.20192308  0.40384615       0.004
   0.19230769  0.19230769  0.38461538       0.004
   0.18269231  0.18269231  0.36538462       0.004
   0.17307692  0.17307692  0.34615385       0.004
   0.16346154  0.16346154  0.32692308       0.004
   0.15384615  0.15384615  0.30769231       0.004
   0.14423077  0.14423077  0.28846154       0.004
   0.13461538  0.13461538  0.26923077       0.004
   0.12500000  0.12500000  0.25000000       0.004
   0.11538462  0.11538462  0.23076923       0.004
   0.10576923  0.10576923  0.21153846       0.004
   0.09615385  0.09615385  0.19230769       0.004
   0.08653846  0.08653846  0.17307692       0.004
   0.07692308  0.07692308  0.15384615       0.004
   0.06730769  0.06730769  0.13461538       0.004
   0.05769231  0.05769231  0.11538462       0.004
   0.04807692  0.04807692  0.09615385       0.004
   0.03846154  0.03846154  0.07692308       0.004
   0.02884615  0.02884615  0.05769231       0.004
   0.01923077  0.01923077  0.03846154       0.004
   0.00961538  0.00961538  0.01923077       0.004
   0.00000000  0.00000000  0.00000000       0.004
   0.00000000  0.00000000  0.00000000       0.004
   0.01282051  0.01282051  0.01282051       0.004
   0.02564103  0.02564103  0.02564103       0.004
   0.03846154  0.03846154  0.03846154       0.004
   0.05128205  0.05128205  0.05128205       0.004
   0.06410256  0.06410256  0.06410256       0.004
   0.07692308  0.07692308  0.07692308       0.004
   0.08974359  0.08974359  0.08974359       0.004
   0.10256410  0.10256410  0.10256410       0.004
   0.11538462  0.11538462  0.11538462       0.004
   0.12820513  0.12820513  0.12820513       0.004
   0.14102564  0.14102564  0.14102564       0.004
   0.15384615  0.15384615  0.15384615       0.004
   0.16666667  0.16666667  0.16666667       0.004
   0.17948718  0.17948718  0.17948718       0.004
   0.19230769  0.19230769  0.19230769       0.004
   0.20512821  0.20512821  0.20512821       0.004
   0.21794872  0.21794872  0.21794872       0.004
   0.23076923  0.23076923  0.23076923       0.004
   0.24358974  0.24358974  0.24358974       0.004
   0.25641026  0.25641026  0.25641026       0.004
   0.26923077  0.26923077  0.26923077       0.004
   0.28205128  0.28205128  0.28205128       0.004
   0.29487179  0.29487179  0.29487179       0.004
   0.30769231  0.30769231  0.30769231       0.004
   0.32051282  0.32051282  0.32051282       0.004
   0.33333333  0.33333333  0.33333333       0.004
   0.34615385  0.34615385  0.34615385       0.004
   0.35897436  0.35897436  0.35897436       0.004
   0.37179487  0.37179487  0.37179487       0.004
   0.38461538  0.38461538  0.38461538       0.004
   0.39743590  0.39743590  0.39743590       0.004
   0.41025641  0.41025641  0.41025641       0.004
   0.42307692  0.42307692  0.42307692       0.004
   0.43589744  0.43589744  0.43589744       0.004
   0.44871795  0.44871795  0.44871795       0.004
   0.46153846  0.46153846  0.46153846       0.004
   0.47435897  0.47435897  0.47435897       0.004
   0.48717949  0.48717949  0.48717949       0.004
   0.50000000  0.50000000  0.50000000       0.004
   0.50000000  0.50000000  0.50000000       0.004
   0.50000000  0.49358974  0.50641026       0.004
   0.50000000  0.48717949  0.51282051       0.004
   0.50000000  0.48076923  0.51923077       0.004
   0.50000000  0.47435897  0.52564103       0.004
   0.50000000  0.46794872  0.53205128       0.004
   0.50000000  0.46153846  0.53846154       0.004
   0.50000000  0.45512821  0.54487179       0.004
   0.50000000  0.44871795  0.55128205       0.004
   0.50000000  0.44230769  0.55769231       0.004
   0.50000000  0.43589744  0.56410256       0.004
   0.50000000  0.42948718  0.57051282       0.004
   0.50000000  0.42307692  0.57692308       0.004
   0.50000000  0.41666667  0.58333333       0.004
   0.50000000  0.41025641  0.58974359       0.004
   0.50000000  0.40384615  0.59615385       0.004
   0.50000000  0.39743590  0.60256410       0.004
   0.50000000  0.39102564  0.60897436       0.004
   0.50000000  0.38461538  0.61538462       0.004
   0.50000000  0.37820513  0.62179487       0.004
   0.50000000  0.37179487  0.62820513       0.004
   0.50000000  0.36538462  0.63461538       0.004
   0.50000000  0.35897436  0.64102564       0.004
   0.50000000  0.35256410  0.64743590       0.004
   0.50000000  0.34615385  0.65384615       0.004
   0.50000000  0.33974359  0.66025641       0.004
   0.50000000  0.33333333  0.66666667       0.004
   0.50000000  0.32692308  0.67307692       0.004
   0.50000000  0.32051282  0.67948718       0.004
   0.50000000  0.31410256  0.68589744       0.004
   0.50000000  0.30769231  0.69230769       0.004
   0.50000000  0.30128205  0.69871795       0.004
   0.50000000  0.29487179  0.70512821       0.004
   0.50000000  0.28846154  0.71153846       0.004
   0.50000000  0.28205128  0.71794872       0.004
   0.50000000  0.27564103  0.72435897       0.004
   0.50000000  0.26923077  0.73076923       0.004
   0.50000000  0.26282051  0.73717949       0.004
   0.50000000  0.25641026  0.74358974       0.004
   0.50000000  0.25000000  0.75000000       0.004
   0.50000000  0.25000000  0.75000000       0.004
   0.50000000  0.24358974  0.74358974       0.004
   0.50000000  0.23717949  0.73717949       0.004
   0.50000000  0.23076923  0.73076923       0.004
   0.50000000  0.22435897  0.72435897       0.004
   0.50000000  0.21794872  0.71794872       0.004
   0.50000000  0.21153846  0.71153846       0.004
   0.50000000  0.20512821  0.70512821       0.004
   0.50000000  0.19871795  0.69871795       0.004
   0.50000000  0.19230769  0.69230769       0.004
   0.50000000  0.18589744  0.68589744       0.004
   0.50000000  0.17948718  0.67948718       0.004
   0.50000000  0.17307692  0.67307692       0.004
   0.50000000  0.16666667  0.66666667       0.004
   0.50000000  0.16025641  0.66025641       0.004
   0.50000000  0.15384615  0.65384615       0.004
   0.50000000  0.14743590  0.64743590       0.004
   0.50000000  0.14102564  0.64102564       0.004
   0.50000000  0.13461538  0.63461538       0.004
   0.50000000  0.12820513  0.62820513       0.004
   0.50000000  0.12179487  0.62179487       0.004
   0.50000000  0.11538462  0.61538462       0.004
   0.50000000  0.10897436  0.60897436       0.004
   0.50000000  0.10256410  0.60256410       0.004
   0.50000000  0.09615385  0.59615385       0.004
   0.50000000  0.08974359  0.58974359       0.004
   0.50000000  0.08333333  0.58333333       0.004
   0.50000000  0.07692308  0.57692308       0.004
   0.50000000  0.07051282  0.57051282       0.004
   0.50000000  0.06410256  0.56410256       0.004
   0.50000000  0.05769231  0.55769231       0.004
   0.50000000  0.05128205  0.55128205       0.004
   0.50000000  0.04487179  0.54487179       0.004
   0.50000000  0.03846154  0.53846154       0.004
   0.50000000  0.03205128  0.53205128       0.004
   0.50000000  0.02564103  0.52564103       0.004
   0.50000000  0.01923077  0.51923077       0.004
   0.50000000  0.01282051  0.51282051       0.004
   0.50000000  0.00641026  0.50641026       0.004
   0.50000000  0.00000000  0.50000000       0.004
 
 position of ions in fractional coordinates (direct lattice) 
   0.60360000  0.60360000  0.18920000
   0.60360000  0.18920000  0.60360000
   0.18920000  0.60360000  0.60360000
   0.60360000  0.60360000  0.60360000
   0.00000000  0.00000000  0.00000000
   0.36000000  0.36000000  0.92000000
   0.36000000  0.92000000  0.36000000
   0.92000000  0.36000000  0.36000000
   0.36000000  0.36000000  0.36000000
   0.86660000  0.86660000  0.40020000
   0.86660000  0.40020000  0.86660000
   0.40020000  0.86660000  0.86660000
   0.86660000  0.86660000  0.86660000
 
 position of ions in cartesian coordinates  (Angst):
   3.96162160  3.96162160  6.03237840
   3.96162160  6.03237840  3.96162160
   6.03237840  3.96162160  3.96162160
   6.03237840  6.03237840  6.03237840
   0.00000000  0.00000000  0.00000000
   6.39616000  6.39616000  3.59784000
   6.39616000  3.59784000  6.39616000
   3.59784000  6.39616000  6.39616000
   3.59784000  3.59784000  3.59784000
   6.33019960  6.33019960  8.66080040
   6.33019960  8.66080040  6.33019960
   8.66080040  6.33019960  6.33019960
   8.66080040  8.66080040  8.66080040
 


--------------------------------------------------------------------------------------------------------


 k-point  1 :   0.0000 0.0000 0.0000  plane waves:    6735
 k-point  2 :   0.0128 0.0000 0.0128  plane waves:    6735
 k-point  3 :   0.0256 0.0000 0.0256  plane waves:    6727
 k-point  4 :   0.0385 0.0000 0.0385  plane waves:    6723
 k-point  5 :   0.0513 0.0000 0.0513  plane waves:    6731
 k-point  6 :   0.0641 0.0000 0.0641  plane waves:    6739
 k-point  7 :   0.0769 0.0000 0.0769  plane waves:    6735
 k-point  8 :   0.0897 0.0000 0.0897  plane waves:    6727
 k-point  9 :   0.1026 0.0000 0.1026  plane waves:    6711
 k-point 10 :   0.1154 0.0000 0.1154  plane waves:    6707
 k-point 11 :   0.1282 0.0000 0.1282  plane waves:    6691
 k-point 12 :   0.1410 0.0000 0.1410  plane waves:    6691
 k-point 13 :   0.1538 0.0000 0.1538  plane waves:    6683
 k-point 14 :   0.1667 0.0000 0.1667  plane waves:    6699
 k-point 15 :   0.1795 0.0000 0.1795  plane waves:    6711
 k-point 16 :   0.1923 0.0000 0.1923  plane waves:    6707
 k-point 17 :   0.2051 0.0000 0.2051  plane waves:    6715
 k-point 18 :   0.2179 0.0000 0.2179  plane waves:    6723
 k-point 19 :   0.2308 0.0000 0.2308  plane waves:    6723
 k-point 20 :   0.2436 0.0000 0.2436  plane waves:    6715
 k-point 21 :   0.2564 0.0000 0.2564  plane waves:    6715
 k-point 22 :   0.2692 0.0000 0.2692  plane waves:    6735
 k-point 23 :   0.2821 0.0000 0.2821  plane waves:    6735
 k-point 24 :   0.2949 0.0000 0.2949  plane waves:    6734
 k-point 25 :   0.3077 0.0000 0.3077  plane waves:    6722
 k-point 26 :   0.3205 0.0000 0.3205  plane waves:    6722
 k-point 27 :   0.3333 0.0000 0.3333  plane waves:    6698
 k-point 28 :   0.3462 0.0000 0.3462  plane waves:    6706
 k-point 29 :   0.3590 0.0000 0.3590  plane waves:    6722
 k-point 30 :   0.3718 0.0000 0.3718  plane waves:    6722
 k-point 31 :   0.3846 0.0000 0.3846  plane waves:    6722
 k-point 32 :   0.3974 0.0000 0.3974  plane waves:    6726
 k-point 33 :   0.4103 0.0000 0.4103  plane waves:    6726
 k-point 34 :   0.4231 0.0000 0.4231  plane waves:    6730
 k-point 35 :   0.4359 0.0000 0.4359  plane waves:    6722
 k-point 36 :   0.4487 0.0000 0.4487  plane waves:    6738
 k-point 37 :   0.4615 0.0000 0.4615  plane waves:    6742
 k-point 38 :   0.4744 0.0000 0.4744  plane waves:    6742
 k-point 39 :   0.4872 0.0000 0.4872  plane waves:    6742
 k-point 40 :   0.5000 0.0000 0.5000  plane waves:    6742
 k-point 41 :   0.5000 0.0000 0.5000  plane waves:    6742
 k-point 42 :   0.5032 0.0064 0.5032  plane waves:    6734
 k-point 43 :   0.5064 0.0128 0.5064  plane waves:    6734
 k-point 44 :   0.5096 0.0192 0.5096  plane waves:    6736
 k-point 45 :   0.5128 0.0256 0.5128  plane waves:    6736
 k-point 46 :   0.5160 0.0321 0.5160  plane waves:    6740
 k-point 47 :   0.5192 0.0385 0.5192  plane waves:    6736
 k-point 48 :   0.5224 0.0449 0.5224  plane waves:    6736
 k-point 49 :   0.5256 0.0513 0.5256  plane waves:    6736
 k-point 50 :   0.5288 0.0577 0.5288  plane waves:    6736
 k-point 51 :   0.5321 0.0641 0.5321  plane waves:    6738
 k-point 52 :   0.5353 0.0705 0.5353  plane waves:    6730
 k-point 53 :   0.5385 0.0769 0.5385  plane waves:    6732
 k-point 54 :   0.5417 0.0833 0.5417  plane waves:    6728
 k-point 55 :   0.5449 0.0897 0.5449  plane waves:    6734
 k-point 56 :   0.5481 0.0962 0.5481  plane waves:    6738
 k-point 57 :   0.5513 0.1026 0.5513  plane waves:    6722
 k-point 58 :   0.5545 0.1090 0.5545  plane waves:    6738
 k-point 59 :   0.5577 0.1154 0.5577  plane waves:    6738
 k-point 60 :   0.5609 0.1218 0.5609  plane waves:    6738
 k-point 61 :   0.5641 0.1282 0.5641  plane waves:    6738
 k-point 62 :   0.5673 0.1346 0.5673  plane waves:    6742
 k-point 63 :   0.5705 0.1410 0.5705  plane waves:    6741
 k-point 64 :   0.5737 0.1474 0.5737  plane waves:    6741
 k-point 65 :   0.5769 0.1538 0.5769  plane waves:    6727
 k-point 66 :   0.5801 0.1603 0.5801  plane waves:    6727
 k-point 67 :   0.5833 0.1667 0.5833  plane waves:    6719
 k-point 68 :   0.5865 0.1731 0.5865  plane waves:    6719
 k-point 69 :   0.5897 0.1795 0.5897  plane waves:    6719
 k-point 70 :   0.5929 0.1859 0.5929  plane waves:    6727
 k-point 71 :   0.5962 0.1923 0.5962  plane waves:    6727
 k-point 72 :   0.5994 0.1987 0.5994  plane waves:    6743
 k-point 73 :   0.6026 0.2051 0.6026  plane waves:    6743
 k-point 74 :   0.6058 0.2115 0.6058  plane waves:    6731
 k-point 75 :   0.6090 0.2179 0.6090  plane waves:    6731
 k-point 76 :   0.6122 0.2244 0.6122  plane waves:    6731
 k-point 77 :   0.6154 0.2308 0.6154  plane waves:    6735
 k-point 78 :   0.6186 0.2372 0.6186  plane waves:    6735
 k-point 79 :   0.6218 0.2436 0.6218  plane waves:    6739
 k-point 80 :   0.6250 0.2500 0.6250  plane waves:    6749
 k-point 81 :   0.3750 0.3750 0.7500  plane waves:    6749
 k-point 82 :   0.3654 0.3654 0.7308  plane waves:    6731
 k-point 83 :   0.3558 0.3558 0.7115  plane waves:    6731
 k-point 84 :   0.3462 0.3462 0.6923  plane waves:    6731
 k-point 85 :   0.3365 0.3365 0.6731  plane waves:    6737
 k-point 86 :   0.3269 0.3269 0.6538  plane waves:    6717
 k-point 87 :   0.3173 0.3173 0.6346  plane waves:    6713
 k-point 88 :   0.3077 0.3077 0.6154  plane waves:    6721
 k-point 89 :   0.2981 0.2981 0.5962  plane waves:    6705
 k-point 90 :   0.2885 0.2885 0.5769  plane waves:    6709
 k-point 91 :   0.2788 0.2788 0.5577  plane waves:    6707
 k-point 92 :   0.2692 0.2692 0.5385  plane waves:    6711
 k-point 93 :   0.2596 0.2596 0.5192  plane waves:    6709
 k-point 94 :   0.2500 0.2500 0.5000  plane waves:    6695
 k-point 95 :   0.2404 0.2404 0.4808  plane waves:    6717
 k-point 96 :   0.2308 0.2308 0.4615  plane waves:    6721
 k-point 97 :   0.2212 0.2212 0.4423  plane waves:    6717
 k-point 98 :   0.2115 0.2115 0.4231  plane waves:    6725
 k-point 99 :   0.2019 0.2019 0.4038  plane waves:    6711
 k-point ** :   0.1923 0.1923 0.3846  plane waves:    6705
 k-point ** :   0.1827 0.1827 0.3654  plane waves:    6713
 k-point ** :   0.1731 0.1731 0.3462  plane waves:    6713
 k-point ** :   0.1635 0.1635 0.3269  plane waves:    6707
 k-point ** :   0.1538 0.1538 0.3077  plane waves:    6701
 k-point ** :   0.1442 0.1442 0.2885  plane waves:    6707
 k-point ** :   0.1346 0.1346 0.2692  plane waves:    6715
 k-point ** :   0.1250 0.1250 0.2500  plane waves:    6723
 k-point ** :   0.1154 0.1154 0.2308  plane waves:    6715
 k-point ** :   0.1058 0.1058 0.2115  plane waves:    6711
 k-point ** :   0.0962 0.0962 0.1923  plane waves:    6705
 k-point ** :   0.0865 0.0865 0.1731  plane waves:    6719
 k-point ** :   0.0769 0.0769 0.1538  plane waves:    6719
 k-point ** :   0.0673 0.0673 0.1346  plane waves:    6725
 k-point ** :   0.0577 0.0577 0.1154  plane waves:    6737
 k-point ** :   0.0481 0.0481 0.0962  plane waves:    6743
 k-point ** :   0.0385 0.0385 0.0769  plane waves:    6727
 k-point ** :   0.0288 0.0288 0.0577  plane waves:    6719
 k-point ** :   0.0192 0.0192 0.0385  plane waves:    6727
 k-point ** :   0.0096 0.0096 0.0192  plane waves:    6735
 k-point ** :   0.0000 0.0000 0.0000  plane waves:    6735
 k-point ** :   0.0000 0.0000 0.0000  plane waves:    6735
 k-point ** :   0.0128 0.0128 0.0128  plane waves:    6735
 k-point ** :   0.0256 0.0256 0.0256  plane waves:    6726
 k-point ** :   0.0385 0.0385 0.0385  plane waves:    6732
 k-point ** :   0.0513 0.0513 0.0513  plane waves:    6732
 k-point ** :   0.0641 0.0641 0.0641  plane waves:    6720
 k-point ** :   0.0769 0.0769 0.0769  plane waves:    6726
 k-point ** :   0.0897 0.0897 0.0897  plane waves:    6723
 k-point ** :   0.1026 0.1026 0.1026  plane waves:    6711
 k-point ** :   0.1154 0.1154 0.1154  plane waves:    6714
 k-point ** :   0.1282 0.1282 0.1282  plane waves:    6699
 k-point ** :   0.1410 0.1410 0.1410  plane waves:    6693
 k-point ** :   0.1538 0.1538 0.1538  plane waves:    6687
 k-point ** :   0.1667 0.1667 0.1667  plane waves:    6687
 k-point ** :   0.1795 0.1795 0.1795  plane waves:    6693
 k-point ** :   0.1923 0.1923 0.1923  plane waves:    6693
 k-point ** :   0.2051 0.2051 0.2051  plane waves:    6693
 k-point ** :   0.2179 0.2179 0.2179  plane waves:    6711
 k-point ** :   0.2308 0.2308 0.2308  plane waves:    6696
 k-point ** :   0.2436 0.2436 0.2436  plane waves:    6696
 k-point ** :   0.2564 0.2564 0.2564  plane waves:    6702
 k-point ** :   0.2692 0.2692 0.2692  plane waves:    6708
 k-point ** :   0.2821 0.2821 0.2821  plane waves:    6703
 k-point ** :   0.2949 0.2949 0.2949  plane waves:    6712
 k-point ** :   0.3077 0.3077 0.3077  plane waves:    6718
 k-point ** :   0.3205 0.3205 0.3205  plane waves:    6736
 k-point ** :   0.3333 0.3333 0.3333  plane waves:    6724
 k-point ** :   0.3462 0.3462 0.3462  plane waves:    6736
 k-point ** :   0.3590 0.3590 0.3590  plane waves:    6715
 k-point ** :   0.3718 0.3718 0.3718  plane waves:    6709
 k-point ** :   0.3846 0.3846 0.3846  plane waves:    6706
 k-point ** :   0.3974 0.3974 0.3974  plane waves:    6718
 k-point ** :   0.4103 0.4103 0.4103  plane waves:    6718
 k-point ** :   0.4231 0.4231 0.4231  plane waves:    6709
 k-point ** :   0.4359 0.4359 0.4359  plane waves:    6715
 k-point ** :   0.4487 0.4487 0.4487  plane waves:    6721
 k-point ** :   0.4615 0.4615 0.4615  plane waves:    6730
 k-point ** :   0.4744 0.4744 0.4744  plane waves:    6724
 k-point ** :   0.4872 0.4872 0.4872  plane waves:    6742
 k-point ** :   0.5000 0.5000 0.5000  plane waves:    6754
 k-point ** :   0.5000 0.5000 0.5000  plane waves:    6754
 k-point ** :   0.5000 0.4936 0.5064  plane waves:    6744
 k-point ** :   0.5000 0.4872 0.5128  plane waves:    6728
 k-point ** :   0.5000 0.4808 0.5192  plane waves:    6720
 k-point ** :   0.5000 0.4744 0.5256  plane waves:    6718
 k-point ** :   0.5000 0.4679 0.5321  plane waves:    6712
 k-point ** :   0.5000 0.4615 0.5385  plane waves:    6714
 k-point ** :   0.5000 0.4551 0.5449  plane waves:    6710
 k-point ** :   0.5000 0.4487 0.5513  plane waves:    6712
 k-point ** :   0.5000 0.4423 0.5577  plane waves:    6712
 k-point ** :   0.5000 0.4359 0.5641  plane waves:    6712
 k-point ** :   0.5000 0.4295 0.5705  plane waves:    6714
 k-point ** :   0.5000 0.4231 0.5769  plane waves:    6718
 k-point ** :   0.5000 0.4167 0.5833  plane waves:    6712
 k-point ** :   0.5000 0.4103 0.5897  plane waves:    6724
 k-point ** :   0.5000 0.4038 0.5962  plane waves:    6724
 k-point ** :   0.5000 0.3974 0.6026  plane waves:    6726
 k-point ** :   0.5000 0.3910 0.6090  plane waves:    6720
 k-point ** :   0.5000 0.3846 0.6154  plane waves:    6714
 k-point ** :   0.5000 0.3782 0.6218  plane waves:    6714
 k-point ** :   0.5000 0.3718 0.6282  plane waves:    6714
 k-point ** :   0.5000 0.3654 0.6346  plane waves:    6720
 k-point ** :   0.5000 0.3590 0.6410  plane waves:    6720
 k-point ** :   0.5000 0.3526 0.6474  plane waves:    6728
 k-point ** :   0.5000 0.3462 0.6538  plane waves:    6728
 k-point ** :   0.5000 0.3397 0.6603  plane waves:    6726
 k-point ** :   0.5000 0.3333 0.6667  plane waves:    6732
 k-point ** :   0.5000 0.3269 0.6731  plane waves:    6734
 k-point ** :   0.5000 0.3205 0.6795  plane waves:    6732
 k-point ** :   0.5000 0.3141 0.6859  plane waves:    6728
 k-point ** :   0.5000 0.3077 0.6923  plane waves:    6732
 k-point ** :   0.5000 0.3013 0.6987  plane waves:    6726
 k-point ** :   0.5000 0.2949 0.7051  plane waves:    6726
 k-point ** :   0.5000 0.2885 0.7115  plane waves:    6722
 k-point ** :   0.5000 0.2821 0.7179  plane waves:    6716
 k-point ** :   0.5000 0.2756 0.7244  plane waves:    6714
 k-point ** :   0.5000 0.2692 0.7308  plane waves:    6714
 k-point ** :   0.5000 0.2628 0.7372  plane waves:    6714
 k-point ** :   0.5000 0.2564 0.7436  plane waves:    6714
 k-point ** :   0.5000 0.2500 0.7500  plane waves:    6740
 k-point ** :   0.5000 0.2500 0.7500  plane waves:    6740
 k-point ** :   0.5000 0.2436 0.7436  plane waves:    6714
 k-point ** :   0.5000 0.2372 0.7372  plane waves:    6714
 k-point ** :   0.5000 0.2308 0.7308  plane waves:    6714
 k-point ** :   0.5000 0.2244 0.7244  plane waves:    6714
 k-point ** :   0.5000 0.2179 0.7179  plane waves:    6716
 k-point ** :   0.5000 0.2115 0.7115  plane waves:    6720
 k-point ** :   0.5000 0.2051 0.7051  plane waves:    6720
 k-point ** :   0.5000 0.1987 0.6987  plane waves:    6716
 k-point ** :   0.5000 0.1923 0.6923  plane waves:    6720
 k-point ** :   0.5000 0.1859 0.6859  plane waves:    6724
 k-point ** :   0.5000 0.1795 0.6795  plane waves:    6720
 k-point ** :   0.5000 0.1731 0.6731  plane waves:    6728
 k-point ** :   0.5000 0.1667 0.6667  plane waves:    6726
 k-point ** :   0.5000 0.1603 0.6603  plane waves:    6730
 k-point ** :   0.5000 0.1538 0.6538  plane waves:    6730
 k-point ** :   0.5000 0.1474 0.6474  plane waves:    6730
 k-point ** :   0.5000 0.1410 0.6410  plane waves:    6730
 k-point ** :   0.5000 0.1346 0.6346  plane waves:    6732
 k-point ** :   0.5000 0.1282 0.6282  plane waves:    6726
 k-point ** :   0.5000 0.1218 0.6218  plane waves:    6726
 k-point ** :   0.5000 0.1154 0.6154  plane waves:    6730
 k-point ** :   0.5000 0.1090 0.6090  plane waves:    6734
 k-point ** :   0.5000 0.1026 0.6026  plane waves:    6732
 k-point ** :   0.5000 0.0962 0.5962  plane waves:    6732
 k-point ** :   0.5000 0.0897 0.5897  plane waves:    6732
 k-point ** :   0.5000 0.0833 0.5833  plane waves:    6736
 k-point ** :   0.5000 0.0769 0.5769  plane waves:    6720
 k-point ** :   0.5000 0.0705 0.5705  plane waves:    6736
 k-point ** :   0.5000 0.0641 0.5641  plane waves:    6736
 k-point ** :   0.5000 0.0577 0.5577  plane waves:    6740
 k-point ** :   0.5000 0.0513 0.5513  plane waves:    6738
 k-point ** :   0.5000 0.0449 0.5449  plane waves:    6742
 k-point ** :   0.5000 0.0385 0.5385  plane waves:    6742
 k-point ** :   0.5000 0.0321 0.5321  plane waves:    6742
 k-point ** :   0.5000 0.0256 0.5256  plane waves:    6742
 k-point ** :   0.5000 0.0192 0.5192  plane waves:    6734
 k-point ** :   0.5000 0.0128 0.5128  plane waves:    6728
 k-point ** :   0.5000 0.0064 0.5064  plane waves:    6734
 k-point ** :   0.5000 0.0000 0.5000  plane waves:    6742

 maximum and minimum number of plane-waves per node :      1145     1087

 maximum number of plane-waves:      6754
 maximum index in each direction: 
   IXMAX=   13   IYMAX=   13   IZMAX=   13
   IXMIN=  -13   IYMIN=  -13   IZMIN=  -13

 NGX is ok and might be reduce to  54
 NGY is ok and might be reduce to  54
 NGZ is ok and might be reduce to  54

 parallel 3D FFT for wavefunctions:
    minimum data exchange during FFTs selected (reduces bandwidth)
 parallel 3D FFT for charge:
    minimum data exchange during FFTs selected (reduces bandwidth)


 total amount of memory used by VASP on root node   327171. kBytes
========================================================================

   base      :      30000. kBytes
   nonl-proj :     118016. kBytes
   fftplans  :       8615. kBytes
   grid      :       7324. kBytes
   one-center:         93. kBytes
   wavefun   :     163123. kBytes
 
     INWAV:  cpu time    0.0000: real time    0.0000
 initial charge density was supplied:
 number of electron     105.0000000 magnetization       0.0045379
 keeping initial charge density in first step


--------------------------------------------------------------------------------------------------------


 Maximum index for augmentation-charges        11765 (set IRDMAX)


--------------------------------------------------------------------------------------------------------


 First call to EWALD:  gamma=   0.282
 Maximum number of real-space cells 3x 3x 3
 Maximum number of reciprocal cells 3x 3x 3

 FEWALD executed in parallel
    FEWALD:  cpu time    0.0020: real time    0.0067


----------------------------------------- Iteration    1(   1)  ---------------------------------------


    POTLOK:  cpu time    0.1140: real time    0.1276
    SETDIJ:  cpu time    0.2730: real time    0.2821
     EDDAV:  cpu time   66.3579: real time   66.7689
       DOS:  cpu time    0.0240: real time    0.0309
    --------------------------------------------
      LOOP:  cpu time   66.7729: real time   67.2278

 eigenvalue-minimisations  : 75712
 total energy-change (2. order) : 0.1057609E+04  (-0.4917563E+04)
 number of electron     105.0000000 magnetization       0.0045379
 augmentation part      105.0000000 magnetization       0.0045379

 Free energy of the ion-electron system (eV)
  ---------------------------------------------------
  alpha Z        PSCENC =       590.10286658
  Ewald energy   TEWEN  =     -6473.88748535
  -Hartree energ DENC   =     -1773.02281981
  -exchange      EXHF   =         0.00000000
  -V(xc)+E(xc)   XCENC  =       137.78319468
  PAW double counting   =     12257.79475428   -12407.33786626
  entropy T*S    EENTRO =        -0.00383667
  eigenvalues    EBANDS =       331.54357684
  atomic energy  EATOM  =      8394.63709520
  Solvation  Ediel_sol  =         0.00000000
  ---------------------------------------------------
  free energy    TOTEN  =      1057.60947949 eV

  energy without entropy =     1057.61331616  energy(sigma->0) =     1057.61139782


--------------------------------------------------------------------------------------------------------




----------------------------------------- Iteration    1(   2)  ---------------------------------------


     EDDAV:  cpu time   66.7628: real time   66.9706
       DOS:  cpu time    0.0230: real time    0.0227
    --------------------------------------------
      LOOP:  cpu time   66.7888: real time   67.0079

 eigenvalue-minimisations  : 76528
 total energy-change (2. order) :-0.1006502E+04  (-0.9521261E+03)
 number of electron     105.0000000 magnetization       0.0045379
 augmentation part      105.0000000 magnetization       0.0045379

 Free energy of the ion-electron system (eV)
  ---------------------------------------------------
  alpha Z        PSCENC =       590.10286658
  Ewald energy   TEWEN  =     -6473.88748535
  -Hartree energ DENC   =     -1773.02281981
  -exchange      EXHF   =         0.00000000
  -V(xc)+E(xc)   XCENC  =       137.78319468
  PAW double counting   =     12257.79475428   -12407.33786626
  entropy T*S    EENTRO =        -0.00475910
  eigenvalues    EBANDS =      -674.95780078
  atomic energy  EATOM  =      8394.63709520
  Solvation  Ediel_sol  =         0.00000000
  ---------------------------------------------------
  free energy    TOTEN  =        51.10717944 eV

  energy without entropy =       51.11193854  energy(sigma->0) =       51.10955899


--------------------------------------------------------------------------------------------------------




----------------------------------------- Iteration    1(   3)  ---------------------------------------


     EDDAV:  cpu time   70.0643: real time   70.2392
       DOS:  cpu time    0.0240: real time    0.0235
    --------------------------------------------
      LOOP:  cpu time   70.0903: real time   70.2744

 eigenvalue-minimisations  : 81640
 total energy-change (2. order) :-0.1230202E+03  (-0.1176310E+03)
 number of electron     105.0000000 magnetization       0.0045379
 augmentation part      105.0000000 magnetization       0.0045379

 Free energy of the ion-electron system (eV)
  ---------------------------------------------------
  alpha Z        PSCENC =       590.10286658
  Ewald energy   TEWEN  =     -6473.88748535
  -Hartree energ DENC   =     -1773.02281981
  -exchange      EXHF   =         0.00000000
  -V(xc)+E(xc)   XCENC  =       137.78319468
  PAW double counting   =     12257.79475428   -12407.33786626
  entropy T*S    EENTRO =        -0.00489755
  eigenvalues    EBANDS =      -797.97782282
  atomic energy  EATOM  =      8394.63709520
  Solvation  Ediel_sol  =         0.00000000
  ---------------------------------------------------
  free energy    TOTEN  =       -71.91298105 eV

  energy without entropy =      -71.90808350  energy(sigma->0) =      -71.91053228


--------------------------------------------------------------------------------------------------------




----------------------------------------- Iteration    1(   4)  ---------------------------------------


     EDDAV:  cpu time   72.2890: real time   72.4884
       DOS:  cpu time    0.0230: real time    0.0234
    --------------------------------------------
      LOOP:  cpu time   72.3150: real time   72.5327

 eigenvalue-minimisations  : 84456
 total energy-change (2. order) :-0.6509701E+01  (-0.6399664E+01)
 number of electron     105.0000000 magnetization       0.0045379
 augmentation part      105.0000000 magnetization       0.0045379

 Free energy of the ion-electron system (eV)
  ---------------------------------------------------
  alpha Z        PSCENC =       590.10286658
  Ewald energy   TEWEN  =     -6473.88748535
  -Hartree energ DENC   =     -1773.02281981
  -exchange      EXHF   =         0.00000000
  -V(xc)+E(xc)   XCENC  =       137.78319468
  PAW double counting   =     12257.79475428   -12407.33786626
  entropy T*S    EENTRO =        -0.00418923
  eigenvalues    EBANDS =      -804.48823263
  atomic energy  EATOM  =      8394.63709520
  Solvation  Ediel_sol  =         0.00000000
  ---------------------------------------------------
  free energy    TOTEN  =       -78.42268254 eV

  energy without entropy =      -78.41849331  energy(sigma->0) =      -78.42058792


--------------------------------------------------------------------------------------------------------




----------------------------------------- Iteration    1(   5)  ---------------------------------------


     EDDAV:  cpu time   72.8109: real time   72.9802
       DOS:  cpu time    0.0240: real time    0.0236
    --------------------------------------------
      LOOP:  cpu time   72.8379: real time   73.0186

 eigenvalue-minimisations  : 85792
 total energy-change (2. order) :-0.1679180E+00  (-0.1668707E+00)
 number of electron     105.0000000 magnetization       0.0045379
 augmentation part      105.0000000 magnetization       0.0045379

 Free energy of the ion-electron system (eV)
  ---------------------------------------------------
  alpha Z        PSCENC =       590.10286658
  Ewald energy   TEWEN  =     -6473.88748535
  -Hartree energ DENC   =     -1773.02281981
  -exchange      EXHF   =         0.00000000
  -V(xc)+E(xc)   XCENC  =       137.78319468
  PAW double counting   =     12257.79475428   -12407.33786626
  entropy T*S    EENTRO =        -0.00418044
  eigenvalues    EBANDS =      -804.65615937
  atomic energy  EATOM  =      8394.63709520
  Solvation  Ediel_sol  =         0.00000000
  ---------------------------------------------------
  free energy    TOTEN  =       -78.59060050 eV

  energy without entropy =      -78.58642006  energy(sigma->0) =      -78.58851028


--------------------------------------------------------------------------------------------------------




----------------------------------------- Iteration    1(   6)  ---------------------------------------


     EDDAV:  cpu time   85.0551: real time   85.2598
       DOS:  cpu time    0.0230: real time    0.0231
    --------------------------------------------
      LOOP:  cpu time   85.0801: real time   85.3014

 eigenvalue-minimisations  :105368
 total energy-change (2. order) :-0.8654665E-02  (-0.8652195E-02)
 number of electron     105.0000000 magnetization       0.0045379
 augmentation part      105.0000000 magnetization       0.0045379

 Free energy of the ion-electron system (eV)
  ---------------------------------------------------
  alpha Z        PSCENC =       590.10286658
  Ewald energy   TEWEN  =     -6473.88748535
  -Hartree energ DENC   =     -1773.02281981
  -exchange      EXHF   =         0.00000000
  -V(xc)+E(xc)   XCENC  =       137.78319468
  PAW double counting   =     12257.79475428   -12407.33786626
  entropy T*S    EENTRO =        -0.00418325
  eigenvalues    EBANDS =      -804.66481123
  atomic energy  EATOM  =      8394.63709520
  Solvation  Ediel_sol  =         0.00000000
  ---------------------------------------------------
  free energy    TOTEN  =       -78.59925516 eV

  energy without entropy =      -78.59507191  energy(sigma->0) =      -78.59716354


--------------------------------------------------------------------------------------------------------




----------------------------------------- Iteration    1(   7)  ---------------------------------------


     EDDAV:  cpu time   68.3166: real time   68.5308
       DOS:  cpu time    0.0230: real time    0.0230
    --------------------------------------------
      LOOP:  cpu time   68.3436: real time   68.5693

 eigenvalue-minimisations  : 78272
 total energy-change (2. order) :-0.7404132E-04  (-0.7403132E-04)
 number of electron     105.0000000 magnetization       0.0045379
 augmentation part      105.0000000 magnetization       0.0045379

 Free energy of the ion-electron system (eV)
  ---------------------------------------------------
  alpha Z        PSCENC =       590.10286658
  Ewald energy   TEWEN  =     -6473.88748535
  -Hartree energ DENC   =     -1773.02281981
  -exchange      EXHF   =         0.00000000
  -V(xc)+E(xc)   XCENC  =       137.78319468
  PAW double counting   =     12257.79475428   -12407.33786626
  entropy T*S    EENTRO =        -0.00418350
  eigenvalues    EBANDS =      -804.66488503
  atomic energy  EATOM  =      8394.63709520
  Solvation  Ediel_sol  =         0.00000000
  ---------------------------------------------------
  free energy    TOTEN  =       -78.59932920 eV

[...]
     59       8.7807      0.00000
     60       9.0868      0.00000
     61       9.1579      0.00000
     62       9.1584      0.00000
     63       9.6766      0.00000
     64       9.8536      0.00000
     65       9.9945      0.00000
     66       9.9949      0.00000
     67      10.0207      0.00000
     68      10.9078      0.00000
     69      10.9794      0.00000
     70      10.9842      0.00000
     71      11.0726      0.00000
     72      11.9095      0.00000

 k-point   240 :       0.5000    0.0000    0.5000
  band No.  band energies     occupation 
      1     -29.3823      1.00000
      2     -29.1219      1.00000
      3     -29.1107      1.00000
      4     -29.1107      1.00000
      5     -29.0028      1.00000
      6     -28.9963      1.00000
      7     -28.8197      1.00000
      8     -28.8197      1.00000
      9     -28.8180      1.00000
     10     -28.8160      1.00000
     11     -28.8018      1.00000
     12     -28.8018      1.00000
     13     -11.6924      1.00000
     14     -11.6861      1.00000
     15     -11.6861      1.00000
     16     -11.4779      1.00000
     17     -11.4775      1.00000
     18      -8.5408      1.00000
     19      -8.4513      1.00000
     20      -7.8925      1.00000
     21      -7.5423      1.00000
     22      -7.5254      1.00000
     23      -7.5254      1.00000
     24      -7.1134      1.00000
     25      -7.1134      1.00000
     26      -1.3534      1.00000
     27      -0.5410      1.00000
     28       0.1258      1.00000
     29       0.4088      1.00000
     30       0.4088      1.00000
     31       0.6797      1.00000
     32       1.0879      1.00000
     33       1.2683      1.00000
     34       1.3979      1.00000
     35       1.3979      1.00000
     36       1.7665      1.00000
     37       1.7665      1.00000
     38       1.7861      1.00000
     39       1.9444      1.00000
     40       1.9799      1.00000
     41       2.5625      1.00000
     42       2.8489      1.00000
     43       2.8489      1.00000
     44       2.8704      1.00000
     45       3.6114      1.00000
     46       3.7367      1.00000
     47       3.7367      1.00000
     48       4.0906      1.00000
     49       4.0906      1.00000
     50       4.4850      1.00000
     51       5.8074      1.00000
     52       5.8157      1.00000
     53       5.8488      1.00000
     54       6.8946      0.00000
     55       6.8946      0.00000
     56       8.2986      0.00000
     57       8.3969      0.00000
     58       8.3969      0.00000
     59       8.7805      0.00000
     60       9.0866      0.00000
     61       9.1587      0.00000
     62       9.1587      0.00000
     63       9.6769      0.00000
     64       9.8529      0.00000
     65       9.9944      0.00000
     66       9.9944      0.00000
     67      10.0215      0.00000
     68      10.9085      0.00000
     69      10.9839      0.00000
     70      10.9844      0.00000
     71      11.0673      0.00000
     72      11.9218      0.00000


--------------------------------------------------------------------------------------------------------


 soft charge-density along one line, spin component           1
         0         1         2         3         4         5         6         7         8         9
 total charge-density along one line
 
 soft charge-density along one line, spin component           2
         0         1         2         3         4         5         6         7         8         9
 total charge-density along one line
 
 pseudopotential strength for first ion, spin component:           1
-31.959   0.013  -0.013   7.925  -0.010   0.010   0.010  -0.010
  0.013 -31.959   0.013  -0.010   7.925  -0.010  -0.000   0.010
 -0.013   0.013 -31.959   0.010  -0.010   7.925   0.010  -0.000
  7.925  -0.010   0.010   6.153   0.004  -0.004  -0.004   0.004
 -0.010   7.925  -0.010   0.004   6.153   0.004   0.000  -0.004
  0.010  -0.010   7.925  -0.004   0.004   6.153  -0.004   0.000
  0.010  -0.000   0.010  -0.004   0.000  -0.004  -6.443  -0.014
 -0.010   0.010  -0.000   0.004  -0.004   0.000  -0.014  -6.443
 -0.002  -0.004  -0.002  -0.000  -0.001  -0.000   0.005   0.003
 -0.000   0.010  -0.010   0.000  -0.004   0.004  -0.014   0.014
 -0.003   0.000   0.003  -0.001  -0.000   0.001  -0.000  -0.005
  0.012  -0.000   0.012  -0.005   0.000  -0.005  -7.859  -0.016
 -0.012   0.012  -0.000   0.005  -0.005   0.000  -0.016  -7.859
 -0.002  -0.004  -0.002  -0.000  -0.001  -0.000   0.007   0.003
 -0.000   0.012  -0.012   0.000  -0.005   0.005  -0.016   0.016
 -0.004   0.000   0.004  -0.001  -0.000   0.001  -0.000  -0.006
  0.003  -0.003   0.003  -0.004   0.004  -0.004   0.004  -0.004
  0.008  -0.008   0.008  -0.008   0.008  -0.008   0.007  -0.007
 pseudopotential strength for first ion, spin component:           2
-31.959   0.013  -0.013   7.925  -0.010   0.010   0.010  -0.010
  0.013 -31.959   0.013  -0.010   7.925  -0.010  -0.000   0.010
 -0.013   0.013 -31.959   0.010  -0.010   7.925   0.010  -0.000
  7.925  -0.010   0.010   6.153   0.004  -0.004  -0.004   0.004
 -0.010   7.925  -0.010   0.004   6.153   0.004   0.000  -0.004
  0.010  -0.010   7.925  -0.004   0.004   6.153  -0.004   0.000
  0.010  -0.000   0.010  -0.004   0.000  -0.004  -6.444  -0.014
 -0.010   0.010  -0.000   0.004  -0.004   0.000  -0.014  -6.444
 -0.002  -0.004  -0.002  -0.000  -0.001  -0.000   0.005   0.003
 -0.000   0.010  -0.010   0.000  -0.004   0.004  -0.014   0.014
 -0.003   0.000   0.003  -0.001  -0.000   0.001  -0.000  -0.005
  0.012  -0.000   0.012  -0.005   0.000  -0.005  -7.860  -0.016
 -0.012   0.012  -0.000   0.005  -0.005   0.000  -0.016  -7.860
 -0.002  -0.004  -0.002  -0.000  -0.001  -0.000   0.007   0.003
 -0.000   0.012  -0.012   0.000  -0.005   0.005  -0.016   0.016
 -0.004   0.000   0.004  -0.001  -0.000   0.001  -0.000  -0.006
  0.003  -0.003   0.003  -0.004   0.004  -0.004   0.004  -0.004
  0.008  -0.008   0.008  -0.008   0.008  -0.008   0.007  -0.007
 total augmentation occupancy for first ion, spin component:           1
  2.000   0.000   0.000   0.000   0.000   0.000   0.000   0.000   0.000   0.000   0.000   0.000   0.000   0.000   0.000   0.000
  0.000   2.000   0.000   0.000   0.000   0.000   0.000   0.000   0.000   0.000   0.000   0.000   0.000   0.000   0.000   0.000
  0.000   0.000   2.000   0.000   0.000   0.000   0.000   0.000   0.000   0.000   0.000   0.000   0.000   0.000   0.000   0.000
  0.000   0.000   0.000   0.000   0.000   0.000   0.000   0.000   0.000   0.000   0.000   0.000   0.000   0.000   0.000   0.000
  0.000   0.000   0.000   0.000   0.000   0.000   0.000   0.000   0.000   0.000   0.000   0.000   0.000   0.000   0.000   0.000
  0.000   0.000   0.000   0.000   0.000   0.000   0.000   0.000   0.000   0.000   0.000   0.000   0.000   0.000   0.000   0.000
  0.000   0.000   0.000   0.000   0.000   0.000   0.800   0.000   0.000   0.000   0.000   0.000   0.000   0.000   0.000   0.000
  0.000   0.000   0.000   0.000   0.000   0.000   0.000   0.800   0.000   0.000   0.000   0.000   0.000   0.000   0.000   0.000
  0.000   0.000   0.000   0.000   0.000   0.000   0.000   0.000   0.800   0.000   0.000   0.000   0.000   0.000   0.000   0.000
  0.000   0.000   0.000   0.000   0.000   0.000   0.000   0.000   0.000   0.800   0.000   0.000   0.000   0.000   0.000   0.000
  0.000   0.000   0.000   0.000   0.000   0.000   0.000   0.000   0.000   0.000   0.800   0.000   0.000   0.000   0.000   0.000
  0.000   0.000   0.000   0.000   0.000   0.000   0.000   0.000   0.000   0.000   0.000   0.000   0.000   0.000   0.000   0.000
  0.000   0.000   0.000   0.000   0.000   0.000   0.000   0.000   0.000   0.000   0.000   0.000   0.000   0.000   0.000   0.000
  0.000   0.000   0.000   0.000   0.000   0.000   0.000   0.000   0.000   0.000   0.000   0.000   0.000   0.000   0.000   0.000
  0.000   0.000   0.000   0.000   0.000   0.000   0.000   0.000   0.000   0.000   0.000   0.000   0.000   0.000   0.000   0.000
  0.000   0.000   0.000   0.000   0.000   0.000   0.000   0.000   0.000   0.000   0.000   0.000   0.000   0.000   0.000   0.000
  0.000   0.000   0.000   0.000   0.000   0.000   0.000   0.000   0.000   0.000   0.000   0.000   0.000   0.000   0.000   0.000
  0.000   0.000   0.000   0.000   0.000   0.000   0.000   0.000   0.000   0.000   0.000   0.000   0.000   0.000   0.000   0.000
 total augmentation occupancy for first ion, spin component:           2
  0.182   0.000   0.000   0.000   0.000   0.000   0.000   0.000   0.000   0.000   0.000   0.000   0.000   0.000   0.000   0.000
  0.000   0.182   0.000   0.000   0.000   0.000   0.000   0.000   0.000   0.000   0.000   0.000   0.000   0.000   0.000   0.000
  0.000   0.000   0.182   0.000   0.000   0.000   0.000   0.000   0.000   0.000   0.000   0.000   0.000   0.000   0.000   0.000
  0.000   0.000   0.000   0.000   0.000   0.000   0.000   0.000   0.000   0.000   0.000   0.000   0.000   0.000   0.000   0.000
  0.000   0.000   0.000   0.000   0.000   0.000   0.000   0.000   0.000   0.000   0.000   0.000   0.000   0.000   0.000   0.000
  0.000   0.000   0.000   0.000   0.000   0.000   0.000   0.000   0.000   0.000   0.000   0.000   0.000   0.000   0.000   0.000
  0.000   0.000   0.000   0.000   0.000   0.000   0.073   0.000   0.000   0.000   0.000   0.000   0.000   0.000   0.000   0.000
  0.000   0.000   0.000   0.000   0.000   0.000   0.000   0.073   0.000   0.000   0.000   0.000   0.000   0.000   0.000   0.000
  0.000   0.000   0.000   0.000   0.000   0.000   0.000   0.000   0.073   0.000   0.000   0.000   0.000   0.000   0.000   0.000
  0.000   0.000   0.000   0.000   0.000   0.000   0.000   0.000   0.000   0.073   0.000   0.000   0.000   0.000   0.000   0.000
  0.000   0.000   0.000   0.000   0.000   0.000   0.000   0.000   0.000   0.000   0.073   0.000   0.000   0.000   0.000   0.000
  0.000   0.000   0.000   0.000   0.000   0.000   0.000   0.000   0.000   0.000   0.000   0.000   0.000   0.000   0.000   0.000
  0.000   0.000   0.000   0.000   0.000   0.000   0.000   0.000   0.000   0.000   0.000   0.000   0.000   0.000   0.000   0.000
  0.000   0.000   0.000   0.000   0.000   0.000   0.000   0.000   0.000   0.000   0.000   0.000   0.000   0.000   0.000   0.000
  0.000   0.000   0.000   0.000   0.000   0.000   0.000   0.000   0.000   0.000   0.000   0.000   0.000   0.000   0.000   0.000
  0.000   0.000   0.000   0.000   0.000   0.000   0.000   0.000   0.000   0.000   0.000   0.000   0.000   0.000   0.000   0.000
  0.000   0.000   0.000   0.000   0.000   0.000   0.000   0.000   0.000   0.000   0.000   0.000   0.000   0.000   0.000   0.000
  0.000   0.000   0.000   0.000   0.000   0.000   0.000   0.000   0.000   0.000   0.000   0.000   0.000   0.000   0.000   0.000


------------------------ aborting loop because EDIFF is reached ----------------------------------------


 


 total charge     
 
# of ion     s       p       d       tot
----------------------------------------
  1        0.313   6.210   2.371   8.893
  2        0.313   6.210   2.360   8.883
  3        0.313   6.210   2.357   8.880
  4        0.311   6.207   2.437   8.955
  5        0.879   0.873  10.110  11.861
  6        1.471   2.443   0.084   3.998
  7        1.472   2.447   0.085   4.004
  8        1.472   2.449   0.085   4.006
  9        1.469   2.427   0.079   3.975
 10        1.436   2.517   0.055   4.009
 11        1.435   2.522   0.055   4.012
 12        1.434   2.526   0.055   4.015
 13        1.441   2.492   0.056   3.990
------------------------------------------------
tot       13.759  45.533  20.188  79.481
 


 magnetization (x)
 
# of ion     s       p       d       tot
----------------------------------------
  1       -0.000  -0.000  -0.001  -0.001
  2       -0.000  -0.000  -0.001  -0.001
  3       -0.000  -0.000  -0.001  -0.001
  4       -0.000  -0.000  -0.001  -0.001
  5       -0.000  -0.000  -0.000  -0.000
  6       -0.000   0.000  -0.000  -0.000
  7       -0.000   0.000  -0.000  -0.000
  8       -0.000   0.000  -0.000  -0.000
  9       -0.000  -0.000  -0.000  -0.000
 10       -0.000  -0.000  -0.000  -0.000
 11       -0.000  -0.000  -0.000  -0.000
 12       -0.000  -0.000   0.000  -0.000
 13       -0.000  -0.000   0.000  -0.000
------------------------------------------------
tot       -0.000  -0.001  -0.002  -0.003
 
    CHARGE:  cpu time    3.4965: real time    3.5110
    FORLOC:  cpu time    0.0080: real time    0.0102
    FORNL :  cpu time   22.1146: real time   22.2532
    FORCOR:  cpu time    0.3579: real time    0.3617
    FORHAR:  cpu time    0.0200: real time    0.0219
    OFIELD:  cpu time    0.0010: real time    0.0048

 VOLUME and BASIS-vectors are now :
 -----------------------------------------------------------------------------
  energy-cutoff  :      520.00
  volume of cell :      249.55
      direct lattice vectors                 reciprocal lattice vectors
     0.000000000  4.997000000  4.997000000    -0.100060036  0.100060036  0.100060036
     4.997000000  0.000000000  4.997000000     0.100060036 -0.100060036  0.100060036
     4.997000000  4.997000000  0.000000000     0.100060036  0.100060036 -0.100060036

  length of vectors
     7.066825171  7.066825171  7.066825171     0.173309066  0.173309066  0.173309066


 FORCES acting on ions
    electron-ion (+dipol)            ewald-force                    non-local-force                 convergence-correction
 -----------------------------------------------------------------------------------------------
   0.997E+02 0.997E+02 -.997E+02   -.100E+03 -.100E+03 0.100E+03   -.908E+00 -.908E+00 0.908E+00   0.819E+00 0.819E+00 -.819E+00
   0.997E+02 -.997E+02 0.997E+02   -.100E+03 0.100E+03 -.100E+03   -.908E+00 0.908E+00 -.908E+00   0.819E+00 -.819E+00 0.819E+00
   -.997E+02 0.997E+02 0.997E+02   0.100E+03 -.100E+03 -.100E+03   0.908E+00 -.908E+00 -.908E+00   -.819E+00 0.819E+00 0.819E+00
   -.997E+02 -.997E+02 -.997E+02   0.100E+03 0.100E+03 0.100E+03   0.908E+00 0.908E+00 0.908E+00   -.819E+00 -.819E+00 -.819E+00
   -.537E-06 -.537E-06 -.538E-06   0.280E-11 0.271E-11 0.276E-11   0.590E-16 0.590E-16 0.347E-16   -.239E-08 -.240E-08 -.225E-08
   -.118E+03 -.118E+03 0.118E+03   0.118E+03 0.118E+03 -.118E+03   0.254E+00 0.254E+00 -.254E+00   -.967E-01 -.967E-01 0.967E-01
   -.118E+03 0.118E+03 -.118E+03   0.118E+03 -.118E+03 0.118E+03   0.254E+00 -.254E+00 0.254E+00   -.967E-01 0.967E-01 -.967E-01
   0.118E+03 -.118E+03 -.118E+03   -.118E+03 0.118E+03 0.118E+03   -.254E+00 0.254E+00 0.254E+00   0.967E-01 -.967E-01 -.967E-01
   0.118E+03 0.118E+03 0.118E+03   -.118E+03 -.118E+03 -.118E+03   -.254E+00 -.254E+00 -.254E+00   0.967E-01 0.967E-01 0.967E-01
   -.754E+01 -.754E+01 0.754E+01   0.846E+01 0.846E+01 -.846E+01   -.861E+00 -.861E+00 0.861E+00   -.269E-01 -.269E-01 0.269E-01
   -.754E+01 0.754E+01 -.754E+01   0.846E+01 -.846E+01 0.846E+01   -.861E+00 0.861E+00 -.861E+00   -.269E-01 0.269E-01 -.269E-01
   0.754E+01 -.754E+01 -.754E+01   -.846E+01 0.846E+01 0.846E+01   0.861E+00 -.861E+00 -.861E+00   0.269E-01 -.269E-01 -.269E-01
   0.754E+01 0.754E+01 0.754E+01   -.846E+01 -.846E+01 -.846E+01   0.861E+00 0.861E+00 0.861E+00   0.269E-01 0.269E-01 0.269E-01
 -----------------------------------------------------------------------------------------------
   -.379E-06 -.379E-06 -.397E-06   -.657E-13 -.142E-13 0.444E-13   0.333E-15 0.999E-15 0.888E-15   -.143E-07 -.143E-07 -.141E-07
 
 
 POSITION                                       TOTAL-FORCE (eV/Angst)
 -----------------------------------------------------------------------------------
      3.96162      3.96162      6.03238        -0.383743     -0.383743      0.383743
      3.96162      6.03238      3.96162        -0.383743      0.383743     -0.383743
      6.03238      3.96162      3.96162         0.383743     -0.383743     -0.383743
      6.03238      6.03238      6.03238         0.383743      0.383743      0.383743
      0.00000      0.00000      0.00000         0.000000      0.000000      0.000000
      6.39616      6.39616      3.59784         0.475469      0.475469     -0.475469
      6.39616      3.59784      6.39616         0.475469     -0.475469      0.475469
      3.59784      6.39616      6.39616        -0.475469      0.475469      0.475469
      3.59784      3.59784      3.59784        -0.475469     -0.475469     -0.475469
      6.33020      6.33020      8.66080         0.033465      0.033465     -0.033465
      6.33020      8.66080      6.33020         0.033465     -0.033465      0.033465
      8.66080      6.33020      6.33020        -0.033465      0.033465      0.033465
      8.66080      8.66080      8.66080        -0.033465     -0.033465     -0.033465
 -----------------------------------------------------------------------------------
    total drift:                               -0.000000     -0.000000     -0.000000


--------------------------------------------------------------------------------------------------------



  FREE ENERGIE OF THE ION-ELECTRON SYSTEM (eV)
  ---------------------------------------------------
  free  energy   TOTEN  =       -78.59932920 eV

  energy  without entropy=      -78.59514571  energy(sigma->0) =      -78.59723745
 


--------------------------------------------------------------------------------------------------------


    POTLOK:  cpu time    0.3609: real time    0.3669


--------------------------------------------------------------------------------------------------------


     LOOP+:  cpu time  529.3395: real time  531.2836
    4ORBIT:  cpu time    0.0000: real time    0.0000
 


 total charge     
 
# of ion     s       p       d       tot
----------------------------------------
  1        0.313   6.210   2.371   8.893
  2        0.313   6.210   2.360   8.883
  3        0.313   6.210   2.357   8.880
  4        0.311   6.207   2.437   8.955
  5        0.879   0.873  10.110  11.861
  6        1.471   2.443   0.084   3.998
  7        1.472   2.447   0.085   4.004
  8        1.472   2.449   0.085   4.006
  9        1.469   2.427   0.079   3.975
 10        1.436   2.517   0.055   4.009
 11        1.435   2.522   0.055   4.012
 12        1.434   2.526   0.055   4.015
 13        1.441   2.492   0.056   3.990
------------------------------------------------
tot       13.759  45.533  20.188  79.481
 


 magnetization (x)
 
# of ion     s       p       d       tot
----------------------------------------
  1       -0.000  -0.000  -0.001  -0.001
  2       -0.000  -0.000  -0.001  -0.001
  3       -0.000  -0.000  -0.001  -0.001
  4       -0.000  -0.000  -0.001  -0.001
  5       -0.000  -0.000  -0.000  -0.000
  6       -0.000   0.000  -0.000  -0.000
  7       -0.000   0.000  -0.000  -0.000
  8       -0.000   0.000  -0.000  -0.000
  9       -0.000  -0.000  -0.000  -0.000
 10       -0.000  -0.000  -0.000  -0.000
 11       -0.000  -0.000  -0.000  -0.000
 12       -0.000  -0.000   0.000  -0.000
 13       -0.000  -0.000   0.000  -0.000
------------------------------------------------
tot       -0.000  -0.001  -0.002  -0.003
 

 total amount of memory used by VASP on root node   327171. kBytes
========================================================================

   base      :      30000. kBytes
   nonl-proj :     118016. kBytes
   fftplans  :       8615. kBytes
   grid      :       7324. kBytes
   one-center:         93. kBytes
   wavefun   :     163123. kBytes
 
  
  
 General timing and accounting informations for this job:
 ========================================================
  
                  Total CPU time used (sec):      582.364
                            User time (sec):      559.567
                          System time (sec):       22.798
                         Elapsed time (sec):      585.430
  
                   Maximum memory used (kb):      432608.
                   Average memory used (kb):           0.
  
                          Minor page faults:       145352
                          Major page faults:          319
                 Voluntary context switches:         9078
