matgen                                  
           1
     0.000000    4.997000    4.997000
     4.997000    0.000000    4.997000
     4.997000    4.997000    0.000000
   Ta   Ga   Se
   4   1   8
Direct configuration=     1
   0.60360000  0.60360000  0.18920000
   0.60360000  0.18920000  0.60360000
   0.18920000  0.60360000  0.60360000
   0.60360000  0.60360000  0.60360000
   0.00000000  0.00000000  0.00000000
   0.36000000  0.36000000  0.92000000
   0.36000000  0.92000000  0.36000000
   0.92000000  0.36000000  0.36000000
   0.36000000  0.36000000  0.36000000
   0.86660000  0.86660000  0.40020000
   0.86660000  0.40020000  0.86660000
   0.40020000  0.86660000  0.86660000
   0.86660000  0.86660000  0.86660000
