   13   13    1    2
  0.1919617E+02  0.7066825E-09  0.7066825E-09  0.7066825E-09  0.2000000E-15
  1.000000000000000E-004
  CAR 
 unknown system                          
    105     35     72
 
  0.3742002E-15  0.3742002E-15  0.3742002E-15  0.1371742E-02
    1      -29.399529    -29.399911   1.000000   1.000000
    2      -29.121039    -29.121449   1.000000   1.000000
    3      -29.121039    -29.121449   1.000000   1.000000
    4      -29.121039    -29.121449   1.000000   1.000000
    5      -29.001110    -29.001533   1.000000   1.000000
    6      -29.001110    -29.001533   1.000000   1.000000
    7      -28.812136    -28.812539   1.000000   1.000000
    8      -28.812136    -28.812539   1.000000   1.000000
    9      -28.812136    -28.812539   1.000000   1.000000
   10      -28.797172    -28.797505   1.000000   1.000000
   11      -28.797172    -28.797505   1.000000   1.000000
   12      -28.797172    -28.797504   1.000000   1.000000
   13      -11.686421    -11.686732   1.000000   1.000000
   14      -11.686421    -11.686732   1.000000   1.000000
   15      -11.686421    -11.686732   1.000000   1.000000
   16      -11.477255    -11.477550   1.000000   1.000000
   17      -11.477255    -11.477550   1.000000   1.000000
   18       -9.539949     -9.539524   1.000000   1.000000
   19       -7.738551     -7.738552   1.000000   1.000000
   20       -7.420094     -7.420133   1.000000   1.000000
   21       -7.420093     -7.420133   1.000000   1.000000
   22       -7.420093     -7.420133   1.000000   1.000000
   23       -7.182048     -7.182244   1.000000   1.000000
   24       -7.182048     -7.182244   1.000000   1.000000
   25       -7.182048     -7.182244   1.000000   1.000000
   26       -2.854784     -2.853930   1.000000   1.000000
   27       -1.034832     -1.033757   1.000000   1.000000
   28       -1.034832     -1.033757   1.000000   1.000000
   29       -1.034832     -1.033757   1.000000   1.000000
   30       -0.405103     -0.405175   1.000000   1.000000
   31        0.599496      0.600955   1.000000   1.000000
   32        0.599496      0.600955   1.000000   1.000000
   33        2.456387      2.456302   1.000000   1.000000
   34        2.456388      2.456303   1.000000   1.000000
   35        2.456388      2.456303   1.000000   1.000000
   36        2.682225      2.681801   1.000000   1.000000
   37        2.682225      2.681801   1.000000   1.000000
   38        2.682225      2.681801   1.000000   1.000000
   39        2.956250      2.955724   1.000000   1.000000
   40        2.956250      2.955724   1.000000   1.000000
   41        3.070414      3.069880   1.000000   1.000000
   42        3.070414      3.069880   1.000000   1.000000
   43        3.070414      3.069880   1.000000   1.000000
   44        3.408187      3.407405   1.000000   1.000000
   45        3.643838      3.644209   1.000000   1.000000
   46        3.643838      3.644209   1.000000   1.000000
   47        3.643839      3.644209   1.000000   1.000000
   48        4.863855      4.863678   1.000000   1.000000
   49        4.863855      4.863678   1.000000   1.000000
   50        5.032972      5.032755   1.000000   1.000000
   51        5.032972      5.032755   1.000000   1.000000
   52        5.032972      5.032755   1.000000   1.000000
   53        6.393806      6.393065   0.096984   0.100628
   54        6.393806      6.393065   0.096982   0.100627
   55        6.393806      6.393066   0.096981   0.100626
   56        7.129841      7.131146   0.000000   0.000000
   57        8.684383      8.685607   0.000000   0.000000
   58        8.684383      8.685607   0.000000   0.000000
   59        8.684384      8.685607   0.000000   0.000000
   60        8.950897      8.952238   0.000000   0.000000
   61        8.950897      8.952238   0.000000   0.000000
   62        8.950911      8.952242   0.000000   0.000000
   63        9.412809      9.412019   0.000000   0.000000
   64        9.412810      9.412020   0.000000   0.000000
   65        9.412841      9.412022   0.000000   0.000000
   66        9.851317      9.850749   0.000000   0.000000
   67        9.851340      9.850822   0.000000   0.000000
   68        9.858774      9.860487   0.000000   0.000000
   69        9.858776      9.860492   0.000000   0.000000
   70        9.858833      9.860503   0.000000   0.000000
   71       10.136637     10.138809   0.000000   0.000000
   72       11.249306     11.248348   0.000000   0.000000
 
  0.1111111E+00  0.3816392E-15  0.3816392E-15  0.1097394E-01
    1      -29.398044    -29.398426   1.000000   1.000000
    2      -29.120713    -29.121123   1.000000   1.000000
    3      -29.120313    -29.120723   1.000000   1.000000
    4      -29.120313    -29.120723   1.000000   1.000000
    5      -29.000947    -29.001369   1.000000   1.000000
    6      -29.000947    -29.001369   1.000000   1.000000
    7      -28.812814    -28.813218   1.000000   1.000000
    8      -28.812814    -28.813218   1.000000   1.000000
    9      -28.812140    -28.812543   1.000000   1.000000
   10      -28.799264    -28.799596   1.000000   1.000000
   11      -28.797470    -28.797802   1.000000   1.000000
   12      -28.797470    -28.797802   1.000000   1.000000
   13      -11.686977    -11.687288   1.000000   1.000000
   14      -11.686382    -11.686694   1.000000   1.000000
   15      -11.686382    -11.686693   1.000000   1.000000
   16      -11.477260    -11.477555   1.000000   1.000000
   17      -11.477260    -11.477555   1.000000   1.000000
   18       -9.493243     -9.492821   1.000000   1.000000
   19       -7.770372     -7.770375   1.000000   1.000000
   20       -7.471573     -7.471537   1.000000   1.000000
   21       -7.422666     -7.422699   1.000000   1.000000
   22       -7.422665     -7.422699   1.000000   1.000000
   23       -7.198815     -7.199052   1.000000   1.000000
   24       -7.181632     -7.181831   1.000000   1.000000
   25       -7.181632     -7.181831   1.000000   1.000000
   26       -2.754870     -2.754030   1.000000   1.000000
   27       -0.968263     -0.967203   1.000000   1.000000
   28       -0.968263     -0.967203   1.000000   1.000000
   29       -0.909985     -0.908961   1.000000   1.000000
   30       -0.394692     -0.394782   1.000000   1.000000
   31        0.596372      0.597767   1.000000   1.000000
   32        0.596372      0.597767   1.000000   1.000000
   33        2.145250      2.145384   1.000000   1.000000
   34        2.368948      2.368978   1.000000   1.000000
   35        2.368949      2.368979   1.000000   1.000000
   36        2.624790      2.624322   1.000000   1.000000
   37        2.624791      2.624322   1.000000   1.000000
   38        2.635858      2.635277   1.000000   1.000000
   39        2.921303      2.920869   1.000000   1.000000
   40        2.921303      2.920869   1.000000   1.000000
   41        2.997837      2.997413   1.000000   1.000000
   42        3.161245      3.160824   1.000000   1.000000
   43        3.161245      3.160824   1.000000   1.000000
   44        3.518125      3.518466   1.000000   1.000000
   45        3.518125      3.518466   1.000000   1.000000
   46        3.531026      3.530343   1.000000   1.000000
   47        3.734055      3.734313   1.000000   1.000000
   48        4.771451      4.771285   1.000000   1.000000
   49        4.889734      4.889468   1.000000   1.000000
   50        4.889734      4.889468   1.000000   1.000000
   51        5.074673      5.074437   1.000000   1.000000
   52        5.074673      5.074438   1.000000   1.000000
   53        6.444723      6.443904   0.003081   0.003304
   54        6.444723      6.443905   0.003080   0.003304
   55        6.446431      6.445642   0.002657   0.002845
   56        7.200166      7.201403   0.000000   0.000000
   57        8.616061      8.617422   0.000000   0.000000
   58        8.646020      8.647131   0.000000   0.000000
   59        8.646020      8.647132   0.000000   0.000000
   60        9.057396      9.057999   0.000000   0.000000
   61        9.057399      9.058007   0.000000   0.000000
   62        9.197379      9.198868   0.000000   0.000000
   63        9.245585      9.246141   0.000000   0.000000
   64        9.245589      9.246150   0.000000   0.000000
   65        9.428397      9.427615   0.000000   0.000000
   66        9.651764      9.651898   0.000000   0.000000
   67        9.651779      9.651935   0.000000   0.000000
   68        9.813362      9.814711   0.000000   0.000000
   69       10.368099     10.368510   0.000000   0.000000
   70       10.369974     10.369195   0.000000   0.000000
   71       10.424233     10.425242   0.000000   0.000000
   72       11.186147     11.171500   0.000000   0.000000
 
  0.2222222E+00  0.4024558E-15  0.4024558E-15  0.1097394E-01
    1      -29.394233    -29.394615   1.000000   1.000000
    2      -29.119833    -29.120243   1.000000   1.000000
    3      -29.118452    -29.118863   1.000000   1.000000
    4      -29.118452    -29.118863   1.000000   1.000000
    5      -29.000491    -29.000914   1.000000   1.000000
    6      -29.000491    -29.000914   1.000000   1.000000
    7      -28.814645    -28.815048   1.000000   1.000000
    8      -28.814645    -28.815048   1.000000   1.000000
    9      -28.812139    -28.812543   1.000000   1.000000
   10      -28.804588    -28.804920   1.000000   1.000000
   11      -28.798096    -28.798428   1.000000   1.000000
   12      -28.798095    -28.798428   1.000000   1.000000
   13      -11.688363    -11.688673   1.000000   1.000000
   14      -11.686290    -11.686601   1.000000   1.000000
   15      -11.686290    -11.686601   1.000000   1.000000
   16      -11.477272    -11.477567   1.000000   1.000000
   17      -11.477272    -11.477567   1.000000   1.000000
   18       -9.356128     -9.355715   1.000000   1.000000
   19       -7.872424     -7.872362   1.000000   1.000000
   20       -7.642016     -7.641971   1.000000   1.000000
   21       -7.429142     -7.429159   1.000000   1.000000
   22       -7.429142     -7.429159   1.000000   1.000000
   23       -7.189855     -7.190091   1.000000   1.000000
   24       -7.180553     -7.180757   1.000000   1.000000
   25       -7.180553     -7.180757   1.000000   1.000000
   26       -2.488124     -2.487316   1.000000   1.000000
   27       -0.776115     -0.775105   1.000000   1.000000
   28       -0.776115     -0.775105   1.000000   1.000000
   29       -0.591664     -0.591003   1.000000   1.000000
   30       -0.329314     -0.329235   1.000000   1.000000
   31        0.583761      0.585004   1.000000   1.000000
   32        0.583761      0.585004   1.000000   1.000000
   33        1.526992      1.527317   1.000000   1.000000
   34        2.049870      2.050058   1.000000   1.000000
   35        2.049871      2.050058   1.000000   1.000000
   36        2.521836      2.521300   1.000000   1.000000
   37        2.608668      2.608464   1.000000   1.000000
   38        2.608668      2.608464   1.000000   1.000000
   39        2.830384      2.830078   1.000000   1.000000
   40        2.830384      2.830078   1.000000   1.000000
   41        2.866226      2.865920   1.000000   1.000000
   42        3.134037      3.134043   1.000000   1.000000
   43        3.134037      3.134043   1.000000   1.000000
   44        3.538808      3.538581   1.000000   1.000000
   45        3.540340      3.540226   1.000000   1.000000
   46        3.540340      3.540226   1.000000   1.000000
   47        3.911154      3.911285   1.000000   1.000000
   48        4.306225      4.305852   1.000000   1.000000
   49        4.770387      4.770098   1.000000   1.000000
   50        4.770387      4.770099   1.000000   1.000000
   51        5.249879      5.249474   1.000000   1.000000
   52        5.249879      5.249474   1.000000   1.000000
   53        6.502069      6.501215   0.000006   0.000007
   54        6.540916      6.539949   0.000000   0.000000
   55        6.540917      6.539950   0.000000   0.000000
   56        7.290662      7.291863   0.000000   0.000000
   57        8.558888      8.559921   0.000000   0.000000
   58        8.558888      8.559940   0.000000   0.000000
   59        8.695263      8.696470   0.000000   0.000000
   60        8.949221      8.949150   0.000000   0.000000
   61        8.949233      8.949152   0.000000   0.000000
   62        9.340954      9.341198   0.000000   0.000000
   63        9.340971      9.341204   0.000000   0.000000
   64        9.476176      9.475398   0.000000   0.000000
   65        9.634931      9.636951   0.000000   0.000000
   66        9.872551      9.873495   0.000000   0.000000
   67        9.892259      9.893235   0.000000   0.000000
   68        9.892316      9.893445   0.000000   0.000000
   69       10.573458     10.572842   0.000000   0.000000
   70       10.577405     10.576165   0.000000   0.000000
   71       10.879727     10.889528   0.000000   0.000000
   72       11.015960     11.050108   0.000000   0.000000
 
  0.3333333E+00  0.3330669E-15  0.3330669E-15  0.1097394E-01
    1      -29.389852    -29.390234   1.000000   1.000000
    2      -29.118766    -29.119176   1.000000   1.000000
    3      -29.116313    -29.116724   1.000000   1.000000
    4      -29.116313    -29.116724   1.000000   1.000000
    5      -28.999947    -29.000371   1.000000   1.000000
    6      -28.999947    -29.000370   1.000000   1.000000
    7      -28.816930    -28.817331   1.000000   1.000000
    8      -28.816930    -28.817331   1.000000   1.000000
    9      -28.812135    -28.812539   1.000000   1.000000
   10      -28.810767    -28.811099   1.000000   1.000000
   11      -28.798648    -28.798982   1.000000   1.000000
   12      -28.798648    -28.798982   1.000000   1.000000
   13      -11.689897    -11.690207   1.000000   1.000000
   14      -11.686184    -11.686495   1.000000   1.000000
   15      -11.686183    -11.686495   1.000000   1.000000
   16      -11.477287    -11.477582   1.000000   1.000000
   17      -11.477287    -11.477582   1.000000   1.000000
   18       -9.139031     -9.138633   1.000000   1.000000
   19       -8.117153     -8.116939   1.000000   1.000000
   20       -7.775507     -7.775571   1.000000   1.000000
   21       -7.436479     -7.436479   1.000000   1.000000
   22       -7.436479     -7.436479   1.000000   1.000000
   23       -7.179284     -7.179494   1.000000   1.000000
   24       -7.179284     -7.179494   1.000000   1.000000
   25       -7.160101     -7.160302   1.000000   1.000000
   26       -2.135031     -2.134260   1.000000   1.000000
   27       -0.486466     -0.485552   1.000000   1.000000
   28       -0.486466     -0.485552   1.000000   1.000000
   29       -0.447972     -0.448117   1.000000   1.000000
   30        0.069897      0.070494   1.000000   1.000000
   31        0.541752      0.542863   1.000000   1.000000
   32        0.541752      0.542863   1.000000   1.000000
   33        0.935945      0.936432   1.000000   1.000000
   34        1.645805      1.646217   1.000000   1.000000
   35        1.645806      1.646218   1.000000   1.000000
   36        2.340422      2.340056   1.000000   1.000000
   37        2.470138      2.470311   1.000000   1.000000
   38        2.470138      2.470311   1.000000   1.000000
   39        2.756644      2.756399   1.000000   1.000000
   40        2.787535      2.787178   1.000000   1.000000
   41        2.787536      2.787179   1.000000   1.000000
   42        2.979899      2.980242   1.000000   1.000000
   43        3.146650      3.146717   1.000000   1.000000
   44        3.146650      3.146718   1.000000   1.000000
   45        3.725044      3.724824   1.000000   1.000000
   46        3.725044      3.724824   1.000000   1.000000
   47        4.074038      4.074098   1.000000   1.000000
   48        4.277445      4.276684   1.000000   1.000000
   49        4.565355      4.565104   1.000000   1.000000
   50        4.565355      4.565104   1.000000   1.000000
   51        5.389615      5.389002   1.000000   1.000000
   52        5.389615      5.389002   1.000000   1.000000
   53        6.469303      6.468499   0.000297   0.000323
   54        6.606076      6.605016   0.000000   0.000000
   55        6.606076      6.605017   0.000000   0.000000
   56        7.289805      7.291082   0.000000   0.000000
   57        8.483678      8.484772   0.000000   0.000000
   58        8.483679      8.484774   0.000000   0.000000
   59        8.842812      8.843609   0.000000   0.000000
   60        8.976601      8.976458   0.000000   0.000000
   61        8.976602      8.976460   0.000000   0.000000
   62        9.369648      9.369270   0.000000   0.000000
   63        9.369653      9.369272   0.000000   0.000000
   64        9.554561      9.553740   0.000000   0.000000
   65        9.898516      9.899846   0.000000   0.000000
   66       10.124024     10.123863   0.000000   0.000000
   67       10.124333     10.124126   0.000000   0.000000
   68       10.491548     10.491549   0.000000   0.000000
   69       10.568152     10.567669   0.000000   0.000000
   70       10.683199     10.684170   0.000000   0.000000
   71       10.687666     10.685420   0.000000   0.000000
   72       11.367887     11.366044   0.000000   0.000000
 
  0.4444444E+00  0.3608225E-15  0.3608225E-15  0.1097394E-01
    1      -29.386961    -29.387344   1.000000   1.000000
    2      -29.118023    -29.118432   1.000000   1.000000
    3      -29.114906    -29.115316   1.000000   1.000000
    4      -29.114906    -29.115316   1.000000   1.000000
    5      -28.999571    -28.999994   1.000000   1.000000
    6      -28.999571    -28.999994   1.000000   1.000000
    7      -28.818516    -28.818916   1.000000   1.000000
    8      -28.818516    -28.818916   1.000000   1.000000
    9      -28.814871    -28.815203   1.000000   1.000000
   10      -28.812129    -28.812533   1.000000   1.000000
   11      -28.798954    -28.799289   1.000000   1.000000
   12      -28.798953    -28.799288   1.000000   1.000000
   13      -11.690872    -11.691182   1.000000   1.000000
   14      -11.686115    -11.686426   1.000000   1.000000
   15      -11.686115    -11.686426   1.000000   1.000000
   16      -11.477295    -11.477590   1.000000   1.000000
   17      -11.477295    -11.477590   1.000000   1.000000
   18       -8.875663     -8.875273   1.000000   1.000000
   19       -8.432840     -8.432573   1.000000   1.000000
   20       -7.823278     -7.823371   1.000000   1.000000
   21       -7.441250     -7.441240   1.000000   1.000000
   22       -7.441250     -7.441240   1.000000   1.000000
   23       -7.178436     -7.178648   1.000000   1.000000
   24       -7.178436     -7.178648   1.000000   1.000000
   25       -7.140003     -7.140182   1.000000   1.000000
   26       -1.839003     -1.838262   1.000000   1.000000
   27       -0.451122     -0.451352   1.000000   1.000000
   28       -0.187803     -0.187071   1.000000   1.000000
   29       -0.187803     -0.187070   1.000000   1.000000
   30        0.285288      0.285672   1.000000   1.000000
   31        0.435498      0.436665   1.000000   1.000000
   32        0.435498      0.436665   1.000000   1.000000
   33        0.967420      0.967969   1.000000   1.000000
   34        1.354962      1.355472   1.000000   1.000000
   35        1.354963      1.355473   1.000000   1.000000
   36        1.869558      1.869854   1.000000   1.000000
   37        2.344682      2.344980   1.000000   1.000000
   38        2.344682      2.344980   1.000000   1.000000
   39        2.570171      2.570281   1.000000   1.000000
   40        2.697215      2.696996   1.000000   1.000000
   41        2.788253      2.787942   1.000000   1.000000
   42        2.788253      2.787942   1.000000   1.000000
   43        3.199362      3.199456   1.000000   1.000000
   44        3.199363      3.199457   1.000000   1.000000
   45        3.921695      3.921425   1.000000   1.000000
   46        3.921695      3.921425   1.000000   1.000000
   47        4.169250      4.169277   1.000000   1.000000
   48        4.341746      4.341575   1.000000   1.000000
   49        4.341746      4.341575   1.000000   1.000000
   50        4.382001      4.381147   1.000000   1.000000
   51        5.456537      5.455769   1.000000   1.000000
   52        5.456538      5.455769   1.000000   1.000000
   53        6.404542      6.403833   0.054513   0.056763
   54        6.633050      6.631960   0.000000   0.000000
   55        6.633050      6.631960   0.000000   0.000000
   56        7.251426      7.252763   0.000000   0.000000
   57        8.461117      8.462345   0.000000   0.000000
   58        8.461118      8.462346   0.000000   0.000000
   59        8.938079      8.938624   0.000000   0.000000
   60        9.119476      9.119179   0.000000   0.000000
   61        9.119477      9.119180   0.000000   0.000000
   62        9.358767      9.358201   0.000000   0.000000
   63        9.358768      9.358201   0.000000   0.000000
   64        9.635942      9.635065   0.000000   0.000000
   65        9.879384      9.878989   0.000000   0.000000
   66        9.879396      9.878995   0.000000   0.000000
   67       10.163459     10.164605   0.000000   0.000000
   68       10.349443     10.349119   0.000000   0.000000
   69       10.867043     10.867566   0.000000   0.000000
   70       11.089385     11.089556   0.000000   0.000000
   71       11.095358     11.093503   0.000000   0.000000
   72       11.547270     11.548332   0.000000   0.000000
 
  0.1111111E+00  0.1111111E+00  0.3778052E-15  0.8230453E-02
    1      -29.397540    -29.397922   1.000000   1.000000
    2      -29.121082    -29.121492   1.000000   1.000000
    3      -29.119828    -29.120238   1.000000   1.000000
    4      -29.119828    -29.120238   1.000000   1.000000
    5      -29.001261    -29.001684   1.000000   1.000000
    6      -29.000514    -29.000937   1.000000   1.000000
    7      -28.812755    -28.813159   1.000000   1.000000
    8      -28.812740    -28.813143   1.000000   1.000000
    9      -28.812740    -28.813143   1.000000   1.000000
   10      -28.799296    -28.799628   1.000000   1.000000
   11      -28.797882    -28.798215   1.000000   1.000000
   12      -28.797882    -28.798214   1.000000   1.000000
   13      -11.687173    -11.687484   1.000000   1.000000
   14      -11.686357    -11.686668   1.000000   1.000000
   15      -11.686357    -11.686668   1.000000   1.000000
   16      -11.477279    -11.477575   1.000000   1.000000
   17      -11.477243    -11.477538   1.000000   1.000000
   18       -9.477875     -9.477454   1.000000   1.000000
   19       -7.778674     -7.778682   1.000000   1.000000
   20       -7.477105     -7.477060   1.000000   1.000000
   21       -7.424822     -7.424835   1.000000   1.000000
   22       -7.424822     -7.424835   1.000000   1.000000
   23       -7.212032     -7.212262   1.000000   1.000000
   24       -7.183554     -7.183770   1.000000   1.000000
   25       -7.183554     -7.183770   1.000000   1.000000
   26       -2.721226     -2.720391   1.000000   1.000000
   27       -0.938753     -0.937721   1.000000   1.000000
   28       -0.910534     -0.909487   1.000000   1.000000
   29       -0.910534     -0.909487   1.000000   1.000000
   30       -0.395282     -0.395380   1.000000   1.000000
   31        0.572682      0.574001   1.000000   1.000000
   32        0.635442      0.636885   1.000000   1.000000
   33        2.115307      2.115551   1.000000   1.000000
   34        2.281614      2.281538   1.000000   1.000000
   35        2.281615      2.281539   1.000000   1.000000
   36        2.606535      2.606168   1.000000   1.000000
   37        2.606535      2.606168   1.000000   1.000000
   38        2.697997      2.697362   1.000000   1.000000
   39        2.870395      2.869991   1.000000   1.000000
   40        2.919088      2.918696   1.000000   1.000000
   41        3.106021      3.105624   1.000000   1.000000
   42        3.106021      3.105624   1.000000   1.000000
   43        3.186917      3.186337   1.000000   1.000000
   44        3.388328      3.388738   1.000000   1.000000
   45        3.563995      3.563376   1.000000   1.000000
   46        3.627638      3.627973   1.000000   1.000000
   47        3.627638      3.627973   1.000000   1.000000
   48        4.733054      4.732778   1.000000   1.000000
   49        4.905581      4.905358   1.000000   1.000000
   50        4.905581      4.905358   1.000000   1.000000
   51        5.021093      5.020939   1.000000   1.000000
   52        5.097975      5.097619   1.000000   1.000000
   53        6.338665      6.337913   0.602831   0.611015
   54        6.519028      6.518166   0.000001   0.000001
   55        6.519028      6.518166   0.000001   0.000001
   56        7.259121      7.260299   0.000000   0.000000
   57        8.568175      8.569430   0.000000   0.000000
   58        8.568176      8.569431   0.000000   0.000000
   59        8.776794      8.777803   0.000000   0.000000
   60        9.015735      9.017238   0.000000   0.000000
   61        9.148086      9.148262   0.000000   0.000000
   62        9.148096      9.148263   0.000000   0.000000
   63        9.230592      9.229901   0.000000   0.000000
   64        9.236396      9.237264   0.000000   0.000000
   65        9.422874      9.423746   0.000000   0.000000
   66        9.422881      9.423771   0.000000   0.000000
   67       10.050661     10.051511   0.000000   0.000000
   68       10.051040     10.051637   0.000000   0.000000
   69       10.065590     10.065255   0.000000   0.000000
   70       10.316773     10.317403   0.000000   0.000000
   71       10.696988     10.698560   0.000000   0.000000
   72       11.141832     11.121897   0.000000   0.000000
 
  0.2222222E+00  0.1111111E+00  0.3816392E-15  0.3292181E-01
    1      -29.394495    -29.394877   1.000000   1.000000
    2      -29.120656    -29.121066   1.000000   1.000000
    3      -29.118260    -29.118671   1.000000   1.000000
    4      -29.118149    -29.118560   1.000000   1.000000
    5      -29.001204    -29.001627   1.000000   1.000000
    6      -28.999873    -29.000296   1.000000   1.000000
    7      -28.814520    -28.814922   1.000000   1.000000
    8      -28.813972    -28.814375   1.000000   1.000000
    9      -28.812719    -28.813122   1.000000   1.000000
   10      -28.803147    -28.803480   1.000000   1.000000
   11      -28.798591    -28.798924   1.000000   1.000000
   12      -28.798495    -28.798827   1.000000   1.000000
   13      -11.688263    -11.688574   1.000000   1.000000
   14      -11.686280    -11.686592   1.000000   1.000000
   15      -11.686272    -11.686584   1.000000   1.000000
   16      -11.477308    -11.477603   1.000000   1.000000
   17      -11.477241    -11.477536   1.000000   1.000000
   18       -9.371481     -9.371068   1.000000   1.000000
   19       -7.842768     -7.842759   1.000000   1.000000
   20       -7.599501     -7.599384   1.000000   1.000000
   21       -7.447267     -7.447292   1.000000   1.000000
   22       -7.433594     -7.433582   1.000000   1.000000
   23       -7.230079     -7.230322   1.000000   1.000000
   24       -7.181198     -7.181432   1.000000   1.000000
   25       -7.168088     -7.168302   1.000000   1.000000
   26       -2.509829     -2.509024   1.000000   1.000000
   27       -0.811434     -0.810421   1.000000   1.000000
   28       -0.729446     -0.728443   1.000000   1.000000
   29       -0.650056     -0.649183   1.000000   1.000000
   30       -0.370217     -0.370285   1.000000   1.000000
   31        0.570959      0.572126   1.000000   1.000000
   32        0.659837      0.661198   1.000000   1.000000
   33        1.614301      1.614661   1.000000   1.000000
   34        2.017262      2.017358   1.000000   1.000000
   35        2.124246      2.124254   1.000000   1.000000
   36        2.477423      2.477111   1.000000   1.000000
   37        2.579561      2.579277   1.000000   1.000000
   38        2.682306      2.681845   1.000000   1.000000
   39        2.811993      2.811739   1.000000   1.000000
   40        2.842239      2.842002   1.000000   1.000000
   41        2.980506      2.980337   1.000000   1.000000
   42        3.129605      3.129656   1.000000   1.000000
   43        3.149777      3.149514   1.000000   1.000000
   44        3.365558      3.365187   1.000000   1.000000
   45        3.460304      3.460354   1.000000   1.000000
   46        3.726777      3.726667   1.000000   1.000000
   47        3.735849      3.736079   1.000000   1.000000
   48        4.399513      4.399214   1.000000   1.000000
   49        4.755650      4.755410   1.000000   1.000000
   50        4.759401      4.759092   1.000000   1.000000
   51        5.151049      5.150770   1.000000   1.000000
   52        5.305758      5.305248   1.000000   1.000000
   53        6.342598      6.341800   0.559400   0.568285
   54        6.606229      6.605276   0.000000   0.000000
   55        6.625119      6.624127   0.000000   0.000000
   56        7.407008      7.408069   0.000000   0.000000
   57        8.499893      8.501122   0.000000   0.000000
   58        8.567062      8.568302   0.000000   0.000000
   59        8.766612      8.767172   0.000000   0.000000
   60        8.985386      8.985837   0.000000   0.000000
   61        9.001331      9.001044   0.000000   0.000000
   62        9.119444      9.119928   0.000000   0.000000
   63        9.274610      9.274048   0.000000   0.000000
   64        9.437146      9.438748   0.000000   0.000000
   65        9.652704      9.653376   0.000000   0.000000
   66        9.736544      9.737870   0.000000   0.000000
   67       10.016532     10.016923   0.000000   0.000000
   68       10.130634     10.131024   0.000000   0.000000
   69       10.457267     10.455810   0.000000   0.000000
   70       10.597184     10.600673   0.000000   0.000000
   71       10.902121     10.926208   0.000000   0.000000
   72       11.024554     11.067200   0.000000   0.000000
 
  0.3333333E+00  0.1111111E+00  0.3885781E-15  0.3292181E-01
    1      -29.390278    -29.390660   1.000000   1.000000