 vasp.5.4.1 24Jun15 (build Nov 23 2015 09:58:10) complex                        
  
 executed on             LinuxIFC date 2020.05.21  19:38:28
 running on   72 total cores
 distrk:  each k-point on   72 cores,    1 groups
 distr:  one band on NCORES_PER_BAND=  12 cores,    6 groups


--------------------------------------------------------------------------------------------------------


 INCAR:
 POTCAR:    PAW_PBE Ta_pv 07Sep2000               
 POTCAR:    PAW_PBE Ga_d 06Jul2010                
 POTCAR:    PAW_PBE Se 06Sep2000                  
 POTCAR:    PAW_PBE Ta_pv 07Sep2000               
   VRHFIN =Ta:  5p6s5d                                                          
   LEXCH  = PE                                                                  
   EATOM  =  1047.1984 eV,   76.9669 Ry                                         
                                                                                
   TITEL  = PAW_PBE Ta_pv 07Sep2000                                             
   LULTRA =        F    use ultrasoft PP ?                                      
   IUNSCR =        1    unscreen: 0-lin 1-nonlin 2-no                           
   RPACOR =    2.330    partial core radius                                     
   POMASS =  180.948; ZVAL   =   11.000    mass and valenz                      
   RCORE  =    2.500    outmost cutoff radius                                   
   RWIGS  =    2.840; RWIGS  =    1.503    wigner-seitz radius (au A)           
   ENMAX  =  223.667; ENMIN  =  167.750 eV                                      
   RCLOC  =    2.205    cutoff for local pot                                    
   LCOR   =        T    correct aug charges                                     
   LPAW   =        T    paw PP                                                  
   EAUG   =  377.421                                                            
   DEXC   =    0.000                                                            
   RMAX   =    2.551    core radius for proj-oper                               
   RAUG   =    1.300    factor for augmentation sphere                          
   RDEP   =    2.526    radius for radial grids                                 
   RDEPT  =    2.132    core radius for aug-charge                              
                                                                                
   Atomic configuration                                                         
   15 entries                                                                   
     n  l   j            E        occ.                                          
     1  0  0.50    -67341.2801   2.0000                                         
     2  0  0.50    -11566.9369   2.0000                                         
     2  1  1.50    -10134.1175   6.0000                                         
     3  0  0.50     -2648.5614   2.0000                                         
     3  1  1.50     -2222.6006   6.0000                                         
     3  2  2.50     -1726.3114  10.0000                                         
     4  0  0.50      -538.6957   2.0000                                         
     4  1  1.50      -399.0125   6.0000                                         
     4  2  2.50      -220.3955  10.0000                                         
     4  3  3.50       -23.0371  14.0000                                         
     5  0  0.50       -71.2900   2.0000                                         
     5  1  1.50       -37.8224   6.0000                                         
     5  2  2.50        -2.6455   4.0000                                         
     6  0  0.50        -4.9623   1.0000                                         
     5  3  2.50        -1.3606   0.0000                                         
   Description                                                                  
     l       E           TYP  RCUT    TYP  RCUT                                 
     1    -37.8224449     23  2.500                                             
     1      1.3605826     23  2.500                                             
     2     -2.6454718     23  2.500                                             
     2     -0.6258570     23  2.500                                             
     0     -4.9622674     23  2.500                                             
     0      4.7531427     23  2.500                                             
  local pseudopotential read in
  partial core-charges read in
  partial kinetic energy density read in
  atomic valenz-charges read in
  non local Contribution for L=           1  read in
    real space projection operators read in
  non local Contribution for L=           1  read in
    real space projection operators read in
  non local Contribution for L=           2  read in
    real space projection operators read in
  non local Contribution for L=           2  read in
    real space projection operators read in
  non local Contribution for L=           0  read in
    real space projection operators read in
  non local Contribution for L=           0  read in
    real space projection operators read in
    PAW grid and wavefunctions read in
 
   number of l-projection  operators is LMAX  =           6
   number of lm-projection operators is LMMAX =          18
 
 POTCAR:    PAW_PBE Ga_d 06Jul2010                
   VRHFIN =Ga: s2p1                                                             
   LEXCH  = PE                                                                  
   EATOM  =  2148.8298 eV,  157.9345 Ry                                         
                                                                                
   TITEL  = PAW_PBE Ga_d 06Jul2010                                              
   LULTRA =        F    use ultrasoft PP ?                                      
   IUNSCR =        1    unscreen: 0-lin 1-nonlin 2-no                           
   RPACOR =    1.700    partial core radius                                     
   POMASS =   69.723; ZVAL   =   13.000    mass and valenz                      
   RCORE  =    2.300    outmost cutoff radius                                   
   RWIGS  =    2.300; RWIGS  =    1.217    wigner-seitz radius (au A)           
   ENMAX  =  282.691; ENMIN  =  212.018 eV                                      
   ICORE  =        3    local potential                                         
   LCOR   =        T    correct aug charges                                     
   LPAW   =        T    paw PP                                                  
   EAUG   =  490.690                                                            
   DEXC   =    0.000                                                            
   RMAX   =    2.341    core radius for proj-oper                               
   RAUG   =    1.300    factor for augmentation sphere                          
   RDEP   =    2.413    radius for radial grids                                 
   RDEPT  =    1.856    core radius for aug-charge                              
                                                                                
   Atomic configuration                                                         
    9 entries                                                                   
     n  l   j            E        occ.                                          
     1  0  0.50    -10228.7831   2.0000                                         
     2  0  0.50     -1262.1604   2.0000                                         
     2  1  1.50     -1098.6333   6.0000                                         
     3  0  0.50      -148.1110   2.0000                                         
     3  1  1.50       -98.8436   6.0000                                         
     3  2  2.50       -19.1549  10.0000                                         
     4  0  0.50        -8.9483   2.0000                                         
     4  1  0.50        -2.5791   1.0000                                         
     4  3  2.50        -2.7416   0.0000                                         
   Description                                                                  
     l       E           TYP  RCUT    TYP  RCUT                                 
     2    -19.1549037     23  2.300                                             
     2     -5.4423304     23  2.300                                             
     0     -8.9483111     23  2.300                                             
     0     68.0291300     23  2.300                                             
     1     -2.5790802     23  2.100                                             
     1     81.6349560     23  2.300                                             
     3      6.8029130     23  2.300                                             
  local pseudopotential read in
  partial core-charges read in
  partial kinetic energy density read in
  atomic valenz-charges read in
  non local Contribution for L=           2  read in
    real space projection operators read in
  non local Contribution for L=           2  read in
    real space projection operators read in
  non local Contribution for L=           0  read in
    real space projection operators read in
  non local Contribution for L=           0  read in
    real space projection operators read in
  non local Contribution for L=           1  read in
    real space projection operators read in
  non local Contribution for L=           1  read in
    real space projection operators read in
    PAW grid and wavefunctions read in
 
   number of l-projection  operators is LMAX  =           6
   number of lm-projection operators is LMMAX =          18
 
 POTCAR:    PAW_PBE Se 06Sep2000                  
   VRHFIN =Se: s2p4                                                             
   LEXCH  = PE                                                                  
   EATOM  =   257.1286 eV,   18.8984 Ry                                         
                                                                                
   TITEL  = PAW_PBE Se 06Sep2000                                                
   LULTRA =        F    use ultrasoft PP ?                                      
   IUNSCR =        1    unscreen: 0-lin 1-nonlin 2-no                           
   RPACOR =    1.900    partial core radius                                     
   POMASS =   78.960; ZVAL   =    6.000    mass and valenz                      
   RCORE  =    2.100    outmost cutoff radius                                   
   RWIGS  =    2.200; RWIGS  =    1.164    wigner-seitz radius (au A)           
   ENMAX  =  211.555; ENMIN  =  158.666 eV                                      
   ICORE  =        3    local potential                                         
   LCOR   =        T    correct aug charges                                     
   LPAW   =        T    paw PP                                                  
   EAUG   =  446.842                                                            
   DEXC   =    0.000                                                            
   RMAX   =    2.147    core radius for proj-oper                               
   RAUG   =    1.300    factor for augmentation sphere                          
   RDEP   =    2.177    radius for radial grids                                 
   RDEPT  =    1.928    core radius for aug-charge                              
                                                                                
   Atomic configuration                                                         
   10 entries                                                                   
     n  l   j            E        occ.                                          
     1  0  0.50    -12503.4787   2.0000                                         
     2  0  0.50     -1606.9547   2.0000                                         
     2  1  1.50     -1413.3140   6.0000                                         
     3  0  0.50      -213.4885   2.0000                                         
     3  1  1.50      -152.9538   6.0000                                         
     3  2  2.50       -53.1221  10.0000                                         
     4  0  0.50       -17.2865   2.0000                                         
     4  1  0.50        -6.5110   4.0000                                         
     4  2  2.50        -6.8029   0.0000                                         
     4  3  2.50        -6.8029   0.0000                                         
   Description                                                                  
     l       E           TYP  RCUT    TYP  RCUT                                 
     0    -17.2865377     23  2.100                                             
     0    -15.3094411     23  2.100                                             
     1     -6.5110275     23  2.100                                             
     1     -0.0695192     23  2.100                                             
     2     -6.8029130     23  2.100                                             
     3     -1.3605826      7  2.100                                             
  local pseudopotential read in
  partial core-charges read in
  partial kinetic energy density read in
  atomic valenz-charges read in
  non local Contribution for L=           0  read in
    real space projection operators read in
  non local Contribution for L=           0  read in
    real space projection operators read in
  non local Contribution for L=           1  read in
    real space projection operators read in
  non local Contribution for L=           1  read in
    real space projection operators read in
  non local Contribution for L=           2  read in
    real space projection operators read in
    PAW grid and wavefunctions read in
 
   number of l-projection  operators is LMAX  =           5
   number of lm-projection operators is LMMAX =          13
 
  PAW_PBE Ta_pv 07Sep2000               :
 energy of atom  1       EATOM=-1047.1984
 kinetic energy error for atom=    0.0016 (will be added to EATOM!!)
  PAW_PBE Ga_d 06Jul2010                :
 energy of atom  2       EATOM=-2148.8298
 kinetic energy error for atom=    0.0026 (will be added to EATOM!!)
  PAW_PBE Se 06Sep2000                  :
 energy of atom  3       EATOM= -257.1286
 kinetic energy error for atom=    0.0007 (will be added to EATOM!!)
 
 
 POSCAR: Ta4 Ga1 Se8                             
  positions in direct lattice
  velocities in cartesian coordinates
 exchange correlation table for  LEXCH =        8
   RHO(1)=    0.500       N(1)  =     2000
   RHO(2)=  100.500       N(2)  =     4000
 


--------------------------------------------------------------------------------------------------------


 ion  position               nearest neighbor table
   1  0.604  0.604  0.189-   9 2.49   8 2.49   7 2.49  13 2.66  12 2.66  11 2.66   2 2.93   3 2.93
                             4 2.93
   2  0.604  0.189  0.604-   8 2.49   6 2.49   9 2.49  13 2.66  12 2.66  10 2.66   1 2.93   3 2.93
                             4 2.93
   3  0.189  0.604  0.604-   7 2.49   6 2.49   9 2.49  13 2.66  11 2.66  10 2.66   1 2.93   2 2.93
                             4 2.93
   4  0.604  0.604  0.604-   6 2.49   7 2.49   8 2.49  10 2.66  11 2.66  12 2.66   1 2.93   2 2.93
                             3 2.93
   5  0.000  0.000  0.000-  10 2.31  11 2.31  12 2.31  13 2.31
   6  0.360  0.360  0.920-   4 2.49   3 2.49   2 2.49
   7  0.360  0.920  0.360-   3 2.49   1 2.49   4 2.49
   8  0.920  0.360  0.360-   2 2.49   1 2.49   4 2.49
   9  0.360  0.360  0.360-   1 2.49   2 2.49   3 2.49
  10  0.867  0.867  0.400-   5 2.31   4 2.66   2 2.66   3 2.66
  11  0.867  0.400  0.867-   5 2.31   4 2.66   1 2.66   3 2.66
  12  0.400  0.867  0.867-   5 2.31   4 2.66   1 2.66   2 2.66
  13  0.867  0.867  0.867-   5 2.31   2 2.66   3 2.66   1 2.66
 
  LATTYP: Found a face centered cubic cell.
 ALAT       =     9.9940000000
  
  Lattice vectors:
  
 A1 = (   0.0000000000,   4.9970000000,   4.9970000000)
 A2 = (   4.9970000000,   0.0000000000,   4.9970000000)
 A3 = (   4.9970000000,   4.9970000000,   0.0000000000)


Analysis of symmetry for initial positions (statically):
=====================================================================
 Subroutine PRICEL returns:
 Original cell was already a primitive cell.
 

 Routine SETGRP: Setting up the symmetry group for a 
 face centered cubic supercell.


 Subroutine GETGRP returns: Found 24 space group operations
 (whereof 24 operations were pure point group operations)
 out of a pool of 48 trial point group operations.


The static configuration has the point symmetry T_d .


Analysis of symmetry for dynamics (positions and initial velocities):
=====================================================================
 Subroutine PRICEL returns:
 Original cell was already a primitive cell.
 

 Routine SETGRP: Setting up the symmetry group for a 
 face centered cubic supercell.


 Subroutine GETGRP returns: Found 24 space group operations
 (whereof 24 operations were pure point group operations)
 out of a pool of 48 trial point group operations.


The dynamic configuration has the point symmetry T_d .


Analysis of magnetic symmetry:
=====================================================================
 Subroutine PRICEL returns:
 Original cell was already a primitive cell.
 

 Subroutine MAGSYM returns: Found 24 space group operations
 (whereof 24 operations were pure point group operations)
 out of a pool of 24 trial space group operations
 (whereof 24 operations were pure point group operations)
 and found also     1 'primitive' translations


The magnetic configuration has the point symmetry T_d .
 
 
 KPOINTS: K-Mesh                                  

Automatic generation of k-mesh.
Space group operators:
 irot       det(A)        alpha          n_x          n_y          n_z        tau_x        tau_y        tau_z
    1     1.000000     0.000000     1.000000     0.000000     0.000000     0.000000     0.000000     0.000000
    2     1.000000   120.000000    -0.577350    -0.577350    -0.577350     0.000000     0.000000     0.000000
    3     1.000000   120.000000     0.577350     0.577350     0.577350     0.000000     0.000000     0.000000
    4    -1.000000    90.000000     0.000000     0.000000    -1.000000     0.000000     0.000000     0.000000
    5    -1.000000   180.000000     0.000000     0.707107     0.707107     0.000000     0.000000     0.000000
    6    -1.000000    90.000000     0.000000     1.000000     0.000000     0.000000     0.000000     0.000000
    7     1.000000   180.000000     0.000000     0.000000     1.000000     0.000000     0.000000     0.000000
    8     1.000000   120.000000    -0.577350     0.577350     0.577350     0.000000     0.000000     0.000000
    9     1.000000   120.000000    -0.577350     0.577350    -0.577350     0.000000     0.000000     0.000000
   10    -1.000000    90.000000     0.000000     0.000000     1.000000     0.000000     0.000000     0.000000
   11    -1.000000    90.000000    -1.000000     0.000000     0.000000     0.000000     0.000000     0.000000
   12    -1.000000   180.000000     0.707107     0.000000     0.707107     0.000000     0.000000     0.000000
   13     1.000000   120.000000     0.577350    -0.577350     0.577350     0.000000     0.000000     0.000000
   14     1.000000   120.000000    -0.577350    -0.577350     0.577350     0.000000     0.000000     0.000000
   15     1.000000   180.000000     1.000000     0.000000     0.000000     0.000000     0.000000     0.000000
   16    -1.000000    90.000000     0.000000    -1.000000     0.000000     0.000000     0.000000     0.000000
   17    -1.000000   180.000000     0.707107     0.707107     0.000000     0.000000     0.000000     0.000000
   18    -1.000000    90.000000     1.000000     0.000000     0.000000     0.000000     0.000000     0.000000
   19     1.000000   120.000000     0.577350    -0.577350    -0.577350     0.000000     0.000000     0.000000
   20     1.000000   180.000000     0.000000     1.000000     0.000000     0.000000     0.000000     0.000000
   21     1.000000   120.000000     0.577350     0.577350    -0.577350     0.000000     0.000000     0.000000
   22    -1.000000   180.000000     0.000000    -0.707107     0.707107     0.000000     0.000000     0.000000
   23    -1.000000   180.000000     0.707107    -0.707107     0.000000     0.000000     0.000000     0.000000
   24    -1.000000   180.000000     0.707107     0.000000    -0.707107     0.000000     0.000000     0.000000
 
 Subroutine IBZKPT returns following result:
 ===========================================
 
 Found     35 irreducible k-points:
 
 Following reciprocal coordinates:
            Coordinates               Weight
  0.000000  0.000000  0.000000      1.000000
  0.111111  0.000000  0.000000      8.000000
  0.222222  0.000000  0.000000      8.000000
  0.333333  0.000000  0.000000      8.000000
  0.444444  0.000000  0.000000      8.000000
  0.111111  0.111111  0.000000      6.000000
  0.222222  0.111111  0.000000     24.000000
  0.333333  0.111111  0.000000     24.000000
  0.444444  0.111111  0.000000     24.000000
 -0.444444  0.111111  0.000000     24.000000
 -0.333333  0.111111  0.000000     24.000000
 -0.222222  0.111111  0.000000     24.000000
 -0.111111  0.111111  0.000000     12.000000
  0.222222  0.222222  0.000000      6.000000
  0.333333  0.222222  0.000000     24.000000
  0.444444  0.222222  0.000000     24.000000
 -0.444444  0.222222  0.000000     24.000000
 -0.333333  0.222222  0.000000     24.000000
 -0.222222  0.222222  0.000000     12.000000
  0.333333  0.333333  0.000000      6.000000
  0.444444  0.333333  0.000000     24.000000
 -0.444444  0.333333  0.000000     24.000000
 -0.333333  0.333333  0.000000     12.000000
  0.444444  0.444444  0.000000      6.000000
 -0.444444  0.444444  0.000000     12.000000
  0.333333  0.222222  0.111111     24.000000
  0.444444  0.222222  0.111111     48.000000
 -0.444444  0.222222  0.111111     48.000000
  0.444444  0.333333  0.111111     24.000000
 -0.444444  0.333333  0.111111     48.000000
 -0.333333  0.333333  0.111111     48.000000
 -0.222222  0.333333  0.111111     24.000000
 -0.444444  0.444444  0.111111     24.000000
 -0.333333  0.444444  0.111111     24.000000
 -0.333333  0.444444  0.222222     24.000000
 
 Following cartesian coordinates:
            Coordinates               Weight
  0.000000  0.000000  0.000000      1.000000
 -0.011118  0.011118  0.011118      8.000000
 -0.022236  0.022236  0.022236      8.000000
 -0.033353  0.033353  0.033353      8.000000
 -0.044471  0.044471  0.044471      8.000000
  0.000000  0.000000  0.022236      6.000000
 -0.011118  0.011118  0.033353     24.000000
 -0.022236  0.022236  0.044471     24.000000
 -0.033353  0.033353  0.055589     24.000000
  0.055589 -0.055589 -0.033353     24.000000
  0.044471 -0.044471 -0.022236     24.000000
  0.033353 -0.033353 -0.011118     24.000000
  0.022236 -0.022236  0.000000     12.000000
  0.000000  0.000000  0.044471      6.000000
 -0.011118  0.011118  0.055589     24.000000
 -0.022236  0.022236  0.066707     24.000000
  0.066707 -0.066707 -0.022236     24.000000
  0.055589 -0.055589 -0.011118     24.000000
  0.044471 -0.044471  0.000000     12.000000
  0.000000  0.000000  0.066707      6.000000
 -0.011118  0.011118  0.077824     24.000000
  0.077824 -0.077824 -0.011118     24.000000
  0.066707 -0.066707  0.000000     12.000000
  0.000000  0.000000  0.088942      6.000000
  0.088942 -0.088942  0.000000     12.000000
  0.000000  0.022236  0.044471     24.000000
 -0.011118  0.033353  0.055589     48.000000
  0.077824 -0.055589 -0.033353     48.000000
  0.000000  0.022236  0.066707     24.000000
  0.088942 -0.066707 -0.022236     48.000000
  0.077824 -0.055589 -0.011118     48.000000
  0.066707 -0.044471  0.000000     24.000000
  0.100060 -0.077824 -0.011118     24.000000
  0.088942 -0.066707  0.000000     24.000000
  0.100060 -0.055589 -0.011118     24.000000
 


--------------------------------------------------------------------------------------------------------




 Dimension of arrays:
   k-points           NKPTS =     35   k-points in BZ     NKDIM =     35   number of bands    NBANDS=     72
   number of dos      NEDOS =   2001   number of ions     NIONS =     13
   non local maximal  LDIM  =      6   non local SUM 2l+1 LMDIM =     18
   total plane-waves  NPLWV = 157464
   max r-space proj   IRMAX =      1   max aug-charges    IRDMAX= 283758
   dimension x,y,z NGX =    54 NGY =   54 NGZ =   54
   dimension x,y,z NGXF=   108 NGYF=  108 NGZF=  108
   support grid    NGXF=   216 NGYF=  216 NGZF=  216
   ions per type =               4   1   8
 NGX,Y,Z   is equivalent  to a cutoff of  12.70, 12.70, 12.70 a.u.
 NGXF,Y,Z  is equivalent  to a cutoff of  25.41, 25.41, 25.41 a.u.


 I would recommend the setting:
   dimension x,y,z NGX =    53 NGY =   53 NGZ =   53
 SYSTEM =  unknown system                          
 POSCAR =  Ta4 Ga1 Se8                             

 Startparameter for this run:
   NWRITE =      2    write-flag & timer
   PREC   = accura    normal or accurate (medium, high low for compatibility)
   ISTART =      0    job   : 0-new  1-cont  2-samecut
   ICHARG =     11    charge: 1-file 2-atom 10-const
   ISPIN  =      2    spin polarized calculation?
   LNONCOLLINEAR =      F non collinear calculations
   LSORBIT =      F    spin-orbit coupling
   INIWAV =      1    electr: 0-lowe 1-rand  2-diag
   LASPH  =      F    aspherical Exc in radial PAW
   METAGGA=      F    non-selfconsistent MetaGGA calc.

 Electronic Relaxation 1
   ENCUT  =  520.0 eV  38.22 Ry    6.18 a.u.  13.14 13.14 13.14*2*pi/ulx,y,z
   ENINI  =  520.0     initial cutoff
   ENAUG  =  490.7 eV  augmentation charge cutoff
   NELM   =    200;   NELMIN=  6; NELMDL=  0     # of ELM steps 
   EDIFF  = 0.1E-03   stopping-criterion for ELM
   LREAL  =      F    real-space projection
   NLSPLINE    = F    spline interpolate recip. space projectors
   LCOMPAT=      F    compatible to vasp.4.4
   GGA_COMPAT  = T    GGA compatible to vasp.4.4-vasp.4.6
   LMAXPAW     = -100 max onsite density
   LMAXMIX     =    4 max onsite mixed and CHGCAR
   VOSKOWN=      0    Vosko Wilk Nusair interpolation
   ROPT   =    0.00000   0.00000   0.00000
 Ionic relaxation
   EDIFFG = -.1E-01   stopping-criterion for IOM
   NSW    =      0    number of steps for IOM
   NBLOCK =      1;   KBLOCK =      1    inner block; outer block 
   IBRION =     -1    ionic relax: 0-MD 1-quasi-New 2-CG
   NFREE  =      0    steps in history (QN), initial steepest desc. (CG)
   ISIF   =      2    stress and relaxation
   IWAVPR =     10    prediction:  0-non 1-charg 2-wave 3-comb
   ISYM   =      2    0-nonsym 1-usesym 2-fastsym
   LCORR  =      T    Harris-Foulkes like correction to forces

   POTIM  = 0.2000    time-step for ionic-motion
   TEIN   =    0.0    initial temperature
   TEBEG  =    0.0;   TEEND  =   0.0 temperature during run
   SMASS  =  -3.00    Nose mass-parameter (am)
   estimated Nose-frequenzy (Omega)   =  0.10E-29 period in steps =****** mass=  -0.114E-26a.u.
   SCALEE = 1.0000    scale energy and forces
   NPACO  =    256;   APACO  = 16.0  distance and # of slots for P.C.
   PSTRESS=    0.0 pullay stress

  Mass of Ions in am
   POMASS = 180.95 69.72 78.96
  Ionic Valenz
   ZVAL   =  11.00 13.00  6.00
  Atomic Wigner-Seitz radii
   RWIGS  =  -1.00 -1.00 -1.00
  virtual crystal weights 
   VCA    =   1.00  1.00  1.00
   NELECT =     105.0000    total number of electrons
   NUPDOWN=      -1.0000    fix difference up-down

 DOS related values:
   EMIN   =  10.00;   EMAX   =-10.00  energy-range for DOS
   EFERMI =   0.00
   ISMEAR =     0;   SIGMA  =   0.05  broadening in eV -4-tet -1-fermi 0-gaus

 Electronic relaxation 2 (details)
   IALGO  =     38    algorithm
   LDIAG  =      T    sub-space diagonalisation (order eigenvalues)
   LSUBROT=      F    optimize rotation matrix (better conditioning)
   TURBO    =      0    0=normal 1=particle mesh
   IRESTART =      0    0=no restart 2=restart with 2 vectors
   NREBOOT  =      0    no. of reboots
   NMIN     =      0    reboot dimension
   EREF     =   0.00    reference energy to select bands
   IMIX   =      4    mixing-type and parameters
     AMIX     =   0.10;   BMIX     =  1.20
     AMIX_MAG =   0.40;   BMIX_MAG =  1.20
     AMIN     =   0.10
     WC   =   100.;   INIMIX=   1;  MIXPRE=   1;  MAXMIX= -45

 Intra band minimization:
   WEIMIN = 0.0000     energy-eigenvalue tresh-hold
   EBREAK =  0.35E-06  absolut break condition
   DEPER  =   0.30     relativ break condition  

   TIME   =   0.40     timestep for ELM

  volume/ion in A,a.u.               =      19.20       129.54
  Fermi-wavevector in a.u.,A,eV,Ry     =   1.226738  2.318199 20.475228  1.504887
  Thomas-Fermi vector in A             =   2.361728
 
 Write flags
   LWAVE  =      F    write WAVECAR
   LCHARG =      F    write CHGCAR
   LVTOT  =      F    write LOCPOT, total local potential
   LVHAR  =      F    write LOCPOT, Hartree potential only
   LELF   =      F    write electronic localiz. function (ELF)
   LORBIT =     11    0 simple, 1 ext, 2 COOP (PROOUT)


 Dipole corrections
   LMONO  =      F    monopole corrections only (constant potential shift)
   LDIPOL =      F    correct potential (dipole corrections)
   IDIPOL =      0    1-x, 2-y, 3-z, 4-all directions 
   EPSILON=  1.0000000 bulk dielectric constant

 LDA+U is selected, type is set to LDAUTYPE =  2
   angular momentum for each species LDAUL =     2    2   -1
   U (eV)           for each species LDAUU =   2.0  3.9  0.0
   J (eV)           for each species LDAUJ =   0.0  0.0  0.0
 Exchange correlation treatment:
   GGA     =    --    GGA type
   LEXCH   =     8    internal setting for exchange type
   VOSKOWN=      0    Vosko Wilk Nusair interpolation
   LHFCALC =     F    Hartree Fock is set to
   LHFONE  =     F    Hartree Fock one center treatment
   AEXX    =    0.0000 exact exchange contribution

 Linear response parameters
   LEPSILON=     F    determine dielectric tensor
   LRPA    =     F    only Hartree local field effects (RPA)
   LNABLA  =     F    use nabla operator in PAW spheres
   LVEL    =     F    velocity operator in full k-point grid
   LINTERFAST=   F  fast interpolation
   KINTER  =     0    interpolate to denser k-point grid
   CSHIFT  =0.1000    complex shift for real part using Kramers Kronig
   OMEGAMAX=  -1.0    maximum frequency
   DEG_THRESHOLD= 0.2000000E-02 threshold for treating states as degnerate
   RTIME   =    0.100 relaxation time in fs

 Orbital magnetization related:
   ORBITALMAG=     F  switch on orbital magnetization
   LCHIMAG   =     F  perturbation theory with respect to B field
   DQ        =  0.001000  dq finite difference perturbation B field



--------------------------------------------------------------------------------------------------------


 Static calculation
 charge density and potential remain constant during run
 spin polarized calculation
 Variant of blocked Davidson
 Davidson routine will perform the subspace rotation
 perform sub-space diagonalisation
    after iterative eigenvector-optimisation
 no mixing
 using additional bands           19
 reciprocal scheme for non local part
 use partial core corrections
 calculate Harris-corrections to forces 
   (improved forces if not selfconsistent)
 use gradient corrections 
 WARNING: stress and forces are not correct
  (second derivative of E(xc) not defined)
 use of overlap-Matrix (Vanderbilt PP)
 Gauss-broadening in eV      SIGMA  =   0.05


--------------------------------------------------------------------------------------------------------


  energy-cutoff  :      520.00
  volume of cell :      249.55
      direct lattice vectors                 reciprocal lattice vectors
     0.000000000  4.997000000  4.997000000    -0.100060036  0.100060036  0.100060036
     4.997000000  0.000000000  4.997000000     0.100060036 -0.100060036  0.100060036
     4.997000000  4.997000000  0.000000000     0.100060036  0.100060036 -0.100060036

  length of vectors
     7.066825171  7.066825171  7.066825171     0.173309066  0.173309066  0.173309066


 
 k-points in units of 2pi/SCALE and weight: K-Mesh                                  
   0.00000000  0.00000000  0.00000000       0.001
  -0.01111778  0.01111778  0.01111778       0.011
  -0.02223556  0.02223556  0.02223556       0.011
  -0.03335335  0.03335335  0.03335335       0.011
  -0.04447113  0.04447113  0.04447113       0.011
   0.00000000  0.00000000  0.02223556       0.008
  -0.01111778  0.01111778  0.03335335       0.033
  -0.02223556  0.02223556  0.04447113       0.033
  -0.03335335  0.03335335  0.05558891       0.033
   0.05558891 -0.05558891 -0.03335335       0.033
   0.04447113 -0.04447113 -0.02223556       0.033
   0.03335335 -0.03335335 -0.01111778       0.033
   0.02223556 -0.02223556  0.00000000       0.016
   0.00000000  0.00000000  0.04447113       0.008
  -0.01111778  0.01111778  0.05558891       0.033
  -0.02223556  0.02223556  0.06670669       0.033
   0.06670669 -0.06670669 -0.02223556       0.033
   0.05558891 -0.05558891 -0.01111778       0.033
   0.04447113 -0.04447113  0.00000000       0.016
   0.00000000  0.00000000  0.06670669       0.008
  -0.01111778  0.01111778  0.07782447       0.033
   0.07782447 -0.07782447 -0.01111778       0.033
   0.06670669 -0.06670669  0.00000000       0.016
   0.00000000  0.00000000  0.08894225       0.008
   0.08894225 -0.08894225  0.00000000       0.016
   0.00000000  0.02223556  0.04447113       0.033
  -0.01111778  0.03335335  0.05558891       0.066
   0.07782447 -0.05558891 -0.03335335       0.066
   0.00000000  0.02223556  0.06670669       0.033
   0.08894225 -0.06670669 -0.02223556       0.066
   0.07782447 -0.05558891 -0.01111778       0.066
   0.06670669 -0.04447113  0.00000000       0.033
   0.10006004 -0.07782447 -0.01111778       0.033
   0.08894225 -0.06670669  0.00000000       0.033
   0.10006004 -0.05558891 -0.01111778       0.033
 
 k-points in reciprocal lattice and weights: K-Mesh                                  
   0.00000000  0.00000000  0.00000000       0.001
   0.11111111  0.00000000  0.00000000       0.011
   0.22222222  0.00000000  0.00000000       0.011
   0.33333333  0.00000000  0.00000000       0.011
   0.44444444  0.00000000  0.00000000       0.011
   0.11111111  0.11111111  0.00000000       0.008
   0.22222222  0.11111111  0.00000000       0.033
   0.33333333  0.11111111  0.00000000       0.033
   0.44444444  0.11111111  0.00000000       0.033
  -0.44444444  0.11111111  0.00000000       0.033
  -0.33333333  0.11111111  0.00000000       0.033
  -0.22222222  0.11111111  0.00000000       0.033
  -0.11111111  0.11111111  0.00000000       0.016
   0.22222222  0.22222222  0.00000000       0.008
   0.33333333  0.22222222  0.00000000       0.033
   0.44444444  0.22222222  0.00000000       0.033
  -0.44444444  0.22222222  0.00000000       0.033
  -0.33333333  0.22222222  0.00000000       0.033
  -0.22222222  0.22222222  0.00000000       0.016
   0.33333333  0.33333333  0.00000000       0.008
   0.44444444  0.33333333  0.00000000       0.033
  -0.44444444  0.33333333  0.00000000       0.033
  -0.33333333  0.33333333  0.00000000       0.016
   0.44444444  0.44444444  0.00000000       0.008
  -0.44444444  0.44444444  0.00000000       0.016
   0.33333333  0.22222222  0.11111111       0.033
   0.44444444  0.22222222  0.11111111       0.066
  -0.44444444  0.22222222  0.11111111       0.066
   0.44444444  0.33333333  0.11111111       0.033
  -0.44444444  0.33333333  0.11111111       0.066
  -0.33333333  0.33333333  0.11111111       0.066
  -0.22222222  0.33333333  0.11111111       0.033
  -0.44444444  0.44444444  0.11111111       0.033
  -0.33333333  0.44444444  0.11111111       0.033
  -0.33333333  0.44444444  0.22222222       0.033
 
 position of ions in fractional coordinates (direct lattice) 
   0.60360000  0.60360000  0.18920000
   0.60360000  0.18920000  0.60360000
   0.18920000  0.60360000  0.60360000
   0.60360000  0.60360000  0.60360000
   0.00000000  0.00000000  0.00000000
   0.36000000  0.36000000  0.92000000
   0.36000000  0.92000000  0.36000000
   0.92000000  0.36000000  0.36000000
   0.36000000  0.36000000  0.36000000
   0.86660000  0.86660000  0.40020000
   0.86660000  0.40020000  0.86660000
   0.40020000  0.86660000  0.86660000
   0.86660000  0.86660000  0.86660000
 
 position of ions in cartesian coordinates  (Angst):
   3.96162160  3.96162160  6.03237840
   3.96162160  6.03237840  3.96162160
   6.03237840  3.96162160  3.96162160
   6.03237840  6.03237840  6.03237840
   0.00000000  0.00000000  0.00000000
   6.39616000  6.39616000  3.59784000
   6.39616000  3.59784000  6.39616000
   3.59784000  6.39616000  6.39616000
   3.59784000  3.59784000  3.59784000
   6.33019960  6.33019960  8.66080040
   6.33019960  8.66080040  6.33019960
   8.66080040  6.33019960  6.33019960
   8.66080040  8.66080040  8.66080040
 


--------------------------------------------------------------------------------------------------------


 k-point  1 :   0.0000 0.0000 0.0000  plane waves:    6735
 k-point  2 :   0.1111 0.0000 0.0000  plane waves:    6714
 k-point  3 :   0.2222 0.0000 0.0000  plane waves:    6705
 k-point  4 :   0.3333 0.0000 0.0000  plane waves:    6724
 k-point  5 :   0.4444 0.0000 0.0000  plane waves:    6721
 k-point  6 :   0.1111 0.1111 0.0000  plane waves:    6707
 k-point  7 :   0.2222 0.1111 0.0000  plane waves:    6710
 k-point  8 :   0.3333 0.1111 0.0000  plane waves:    6719
 k-point  9 :   0.4444 0.1111 0.0000  plane waves:    6703
 k-point 10 :  -0.4444 0.1111 0.0000  plane waves:    6718
 k-point 11 :  -0.3333 0.1111 0.0000  plane waves:    6704
 k-point 12 :  -0.2222 0.1111 0.0000  plane waves:    6702
 k-point 13 :  -0.1111 0.1111 0.0000  plane waves:    6703
 k-point 14 :   0.2222 0.2222 0.0000  plane waves:    6707
 k-point 15 :   0.3333 0.2222 0.0000  plane waves:    6733
 k-point 16 :   0.4444 0.2222 0.0000  plane waves:    6719
 k-point 17 :  -0.4444 0.2222 0.0000  plane waves:    6726
 k-point 18 :  -0.3333 0.2222 0.0000  plane waves:    6720
 k-point 19 :  -0.2222 0.2222 0.0000  plane waves:    6717
 k-point 20 :   0.3333 0.3333 0.0000  plane waves:    6698
 k-point 21 :   0.4444 0.3333 0.0000  plane waves:    6730
 k-point 22 :  -0.4444 0.3333 0.0000  plane waves:    6730
 k-point 23 :  -0.3333 0.3333 0.0000  plane waves:    6745
 k-point 24 :   0.4444 0.4444 0.0000  plane waves:    6738
 k-point 25 :  -0.4444 0.4444 0.0000  plane waves:    6738
 k-point 26 :   0.3333 0.2222 0.1111  plane waves:    6712
 k-point 27 :   0.4444 0.2222 0.1111  plane waves:    6711
 k-point 28 :  -0.4444 0.2222 0.1111  plane waves:    6727
 k-point 29 :   0.4444 0.3333 0.1111  plane waves:    6716
 k-point 30 :  -0.4444 0.3333 0.1111  plane waves:    6722
 k-point 31 :  -0.3333 0.3333 0.1111  plane waves:    6722
 k-point 32 :  -0.2222 0.3333 0.1111  plane waves:    6704
 k-point 33 :  -0.4444 0.4444 0.1111  plane waves:    6721
 k-point 34 :  -0.3333 0.4444 0.1111  plane waves:    6730
 k-point 35 :  -0.3333 0.4444 0.2222  plane waves:    6721

 maximum and minimum number of plane-waves per node :       572      545

 maximum number of plane-waves:      6745
 maximum index in each direction: 
   IXMAX=   13   IYMAX=   13   IZMAX=   13
   IXMIN=  -13   IYMIN=  -13   IZMIN=  -13

 NGX is ok and might be reduce to  54
 NGY is ok and might be reduce to  54
 NGZ is ok and might be reduce to  54

 parallel 3D FFT for wavefunctions:
    minimum data exchange during FFTs selected (reduces bandwidth)
 parallel 3D FFT for charge:
    minimum data exchange during FFTs selected (reduces bandwidth)


 total amount of memory used by VASP on root node    53097. kBytes
========================================================================

   base      :      30000. kBytes
   nonl-proj :       8644. kBytes
   fftplans  :       3068. kBytes
   grid      :       3259. kBytes
   one-center:         62. kBytes
   wavefun   :       8064. kBytes
 
     INWAV:  cpu time    0.0010: real time    0.0004
 initial charge density was supplied:
 number of electron     105.0000000 magnetization       0.0045379
 keeping initial charge density in first step


--------------------------------------------------------------------------------------------------------


 Maximum index for augmentation-charges         4239 (set IRDMAX)


--------------------------------------------------------------------------------------------------------


 First call to EWALD:  gamma=   0.282
 Maximum number of real-space cells 3x 3x 3
 Maximum number of reciprocal cells 3x 3x 3

 FEWALD executed in parallel
    FEWALD:  cpu time    0.0040: real time    0.0082


----------------------------------------- Iteration    1(   1)  ---------------------------------------


    POTLOK:  cpu time    0.0960: real time    0.1121
    SETDIJ:  cpu time    0.1880: real time    0.1938
     EDDAV:  cpu time    6.6940: real time    6.9420
       DOS:  cpu time    0.0080: real time    0.0169
    --------------------------------------------
      LOOP:  cpu time    6.9909: real time    7.2846

 eigenvalue-minimisations  : 11184
 total energy-change (2. order) : 0.9785776E+03  (-0.5039709E+04)
 number of electron     105.0000000 magnetization       0.0045379
 augmentation part      105.0000000 magnetization       0.0045379

 Free energy of the ion-electron system (eV)
  ---------------------------------------------------
  alpha Z        PSCENC =       590.10286658
  Ewald energy   TEWEN  =     -6473.88748535
  -Hartree energ DENC   =     -1773.02281981
  -exchange      EXHF   =         0.00000000
  -V(xc)+E(xc)   XCENC  =       137.78319468
  PAW double counting   =     12257.79475428   -12407.33786626
  entropy T*S    EENTRO =        -0.00457050
  eigenvalues    EBANDS =       252.51246044
  atomic energy  EATOM  =      8394.63709520
  Solvation  Ediel_sol  =         0.00000000
  ---------------------------------------------------
  free energy    TOTEN  =       978.57762925 eV

  energy without entropy =      978.58219975  energy(sigma->0) =      978.57991450


--------------------------------------------------------------------------------------------------------




----------------------------------------- Iteration    1(   2)  ---------------------------------------


     EDDAV:  cpu time    6.5310: real time    6.5466
       DOS:  cpu time    0.0050: real time    0.0052
    --------------------------------------------
      LOOP:  cpu time    6.5390: real time    6.5660

 eigenvalue-minimisations  : 10980
 total energy-change (2. order) :-0.9540586E+03  (-0.9091406E+03)
 number of electron     105.0000000 magnetization       0.0045379
 augmentation part      105.0000000 magnetization       0.0045379

 Free energy of the ion-electron system (eV)
  ---------------------------------------------------
  alpha Z        PSCENC =       590.10286658
  Ewald energy   TEWEN  =     -6473.88748535
  -Hartree energ DENC   =     -1773.02281981
  -exchange      EXHF   =         0.00000000
  -V(xc)+E(xc)   XCENC  =       137.78319468
  PAW double counting   =     12257.79475428   -12407.33786626
  entropy T*S    EENTRO =        -0.00444311
  eigenvalues    EBANDS =      -701.54624597
  atomic energy  EATOM  =      8394.63709520
  Solvation  Ediel_sol  =         0.00000000
  ---------------------------------------------------
  free energy    TOTEN  =        24.51905024 eV

  energy without entropy =       24.52349335  energy(sigma->0) =       24.52127180


--------------------------------------------------------------------------------------------------------




----------------------------------------- Iteration    1(   3)  ---------------------------------------


     EDDAV:  cpu time    7.0609: real time    7.0851
       DOS:  cpu time    0.0050: real time    0.0055
    --------------------------------------------
      LOOP:  cpu time    7.0689: real time    7.1062

 eigenvalue-minimisations  : 12192
 total energy-change (2. order) :-0.9928930E+02  (-0.9616175E+02)
 number of electron     105.0000000 magnetization       0.0045379
 augmentation part      105.0000000 magnetization       0.0045379

 Free energy of the ion-electron system (eV)
  ---------------------------------------------------
  alpha Z        PSCENC =       590.10286658
  Ewald energy   TEWEN  =     -6473.88748535
  -Hartree energ DENC   =     -1773.02281981
  -exchange      EXHF   =         0.00000000
  -V(xc)+E(xc)   XCENC  =       137.78319468
  PAW double counting   =     12257.79475428   -12407.33786626
  entropy T*S    EENTRO =        -0.00836785
  eigenvalues    EBANDS =      -800.83162090
  atomic energy  EATOM  =      8394.63709520
  Solvation  Ediel_sol  =         0.00000000
  ---------------------------------------------------
  free energy    TOTEN  =       -74.77024943 eV

  energy without entropy =      -74.76188158  energy(sigma->0) =      -74.76606550


--------------------------------------------------------------------------------------------------------




----------------------------------------- Iteration    1(   4)  ---------------------------------------


     EDDAV:  cpu time    7.1839: real time    7.2033
       DOS:  cpu time    0.0050: real time    0.0057
    --------------------------------------------
      LOOP:  cpu time    7.1939: real time    7.2184

 eigenvalue-minimisations  : 12408
 total energy-change (2. order) :-0.4011103E+01  (-0.3969645E+01)
 number of electron     105.0000000 magnetization       0.0045379
 augmentation part      105.0000000 magnetization       0.0045379

 Free energy of the ion-electron system (eV)
  ---------------------------------------------------
  alpha Z        PSCENC =       590.10286658
  Ewald energy   TEWEN  =     -6473.88748535
  -Hartree energ DENC   =     -1773.02281981
  -exchange      EXHF   =         0.00000000
  -V(xc)+E(xc)   XCENC  =       137.78319468
  PAW double counting   =     12257.79475428   -12407.33786626
  entropy T*S    EENTRO =        -0.00833086
  eigenvalues    EBANDS =      -804.84276079
  atomic energy  EATOM  =      8394.63709520
  Solvation  Ediel_sol  =         0.00000000
  ---------------------------------------------------
  free energy    TOTEN  =       -78.78135233 eV

  energy without entropy =      -78.77302148  energy(sigma->0) =      -78.77718690


--------------------------------------------------------------------------------------------------------




----------------------------------------- Iteration    1(   5)  ---------------------------------------


     EDDAV:  cpu time    7.1699: real time    7.1871
       DOS:  cpu time    0.0060: real time    0.0057
    --------------------------------------------
      LOOP:  cpu time    7.1779: real time    7.2034

 eigenvalue-minimisations  : 12432
 total energy-change (2. order) :-0.8221603E-01  (-0.8204989E-01)
 number of electron     105.0000000 magnetization       0.0045379
 augmentation part      105.0000000 magnetization       0.0045379

 Free energy of the ion-electron system (eV)
  ---------------------------------------------------
  alpha Z        PSCENC =       590.10286658
  Ewald energy   TEWEN  =     -6473.88748535
  -Hartree energ DENC   =     -1773.02281981
  -exchange      EXHF   =         0.00000000
  -V(xc)+E(xc)   XCENC  =       137.78319468
  PAW double counting   =     12257.79475428   -12407.33786626
  entropy T*S    EENTRO =        -0.00835268
  eigenvalues    EBANDS =      -804.92495500
  atomic energy  EATOM  =      8394.63709520
  Solvation  Ediel_sol  =         0.00000000
  ---------------------------------------------------
  free energy    TOTEN  =       -78.86356836 eV

  energy without entropy =      -78.85521568  energy(sigma->0) =      -78.85939202


--------------------------------------------------------------------------------------------------------




----------------------------------------- Iteration    1(   6)  ---------------------------------------


     EDDAV:  cpu time    8.8087: real time    8.8282
       DOS:  cpu time    0.0060: real time    0.0056
    --------------------------------------------
      LOOP:  cpu time    8.8167: real time    8.8460

 eigenvalue-minimisations  : 16308
 total energy-change (2. order) :-0.4936709E-02  (-0.4936238E-02)
 number of electron     105.0000000 magnetization       0.0045379
 augmentation part      105.0000000 magnetization       0.0045379

 Free energy of the ion-electron system (eV)
  ---------------------------------------------------
  alpha Z        PSCENC =       590.10286658
  Ewald energy   TEWEN  =     -6473.88748535
  -Hartree energ DENC   =     -1773.02281981
  -exchange      EXHF   =         0.00000000
  -V(xc)+E(xc)   XCENC  =       137.78319468
  PAW double counting   =     12257.79475428   -12407.33786626
  entropy T*S    EENTRO =        -0.00835469
  eigenvalues    EBANDS =      -804.92988970
  atomic energy  EATOM  =      8394.63709520
  Solvation  Ediel_sol  =         0.00000000
  ---------------------------------------------------
  free energy    TOTEN  =       -78.86850507 eV

  energy without entropy =      -78.86015038  energy(sigma->0) =      -78.86432773


--------------------------------------------------------------------------------------------------------




----------------------------------------- Iteration    1(   7)  ---------------------------------------


     EDDAV:  cpu time    6.5150: real time    6.5356
       DOS:  cpu time    0.0060: real time    0.0056
    --------------------------------------------
      LOOP:  cpu time    6.5230: real time    6.5532

 eigenvalue-minimisations  : 10644
 total energy-change (2. order) :-0.1932041E-04  (-0.1931901E-04)
 number of electron     105.0000000 magnetization       0.0045379
 augmentation part      105.0000000 magnetization       0.0045379

 Free energy of the ion-electron system (eV)
  ---------------------------------------------------
  alpha Z        PSCENC =       590.10286658
  Ewald energy   TEWEN  =     -6473.88748535
  -Hartree energ DENC   =     -1773.02281981
  -exchange      EXHF   =         0.00000000
  -V(xc)+E(xc)   XCENC  =       137.78319468
  PAW double counting   =     12257.79475428   -12407.33786626
  entropy T*S    EENTRO =        -0.00835467
  eigenvalues    EBANDS =      -804.92990904
  atomic energy  EATOM  =      8394.63709520
  Solvation  Ediel_sol  =         0.00000000
  ---------------------------------------------------
  free energy    TOTEN  =       -78.86852439 eV

  energy without entropy =      -78.86016973  energy(sigma->0) =      -78.86434706


--------------------------------------------------------------------------------------------------------




 average (electrostatic) potential at core
  the test charge radii are     1.1760  1.0314  1.0808
  (the norm of the test charge is              1.0000)
       1 -37.2849       2 -37.2849       3 -37.2849       4 -37.2849       5 -65.1395
       6 -52.4981       7 -52.4981       8 -52.4981       9 -52.4981      10 -52.7631
      11 -52.7631      12 -52.7631      13 -52.7631
 
 
 
 E-fermi :   6.3479     XC(G=0): -10.9715     alpha+bet :-11.6017


 spin component 1

 k-point     1 :       0.0000    0.0000    0.0000
  band No.  band energies     occupation 
      1     -29.3995      1.00000
      2     -29.1210      1.00000
      3     -29.1210      1.00000
      4     -29.1210      1.00000
      5     -29.0011      1.00000
      6     -29.0011      1.00000
      7     -28.8121      1.00000
      8     -28.8121      1.00000
      9     -28.8121      1.00000
     10     -28.7972      1.00000
     11     -28.7972      1.00000
     12     -28.7972      1.00000
     13     -11.6864      1.00000
     14     -11.6864      1.00000
     15     -11.6864      1.00000
     16     -11.4773      1.00000
     17     -11.4773      1.00000
     18      -9.5399      1.00000
     19      -7.7386      1.00000
     20      -7.4201      1.00000
     21      -7.4201      1.00000
     22      -7.4201      1.00000
     23      -7.1820      1.00000
     24      -7.1820      1.00000
     25      -7.1820      1.00000
     26      -2.8548      1.00000
     27      -1.0348      1.00000
     28      -1.0348      1.00000
     29      -1.0348      1.00000
     30      -0.4051      1.00000
     31       0.5995      1.00000
     32       0.5995      1.00000
     33       2.4564      1.00000
     34       2.4564      1.00000
     35       2.4564      1.00000
     36       2.6822      1.00000
     37       2.6822      1.00000
     38       2.6822      1.00000
     39       2.9562      1.00000
     40       2.9562      1.00000
     41       3.0704      1.00000
     42       3.0704      1.00000
     43       3.0704      1.00000
     44       3.4082      1.00000
     45       3.6438      1.00000
     46       3.6438      1.00000
     47       3.6438      1.00000
     48       4.8639      1.00000
     49       4.8639      1.00000
     50       5.0330      1.00000
     51       5.0330      1.00000
     52       5.0330      1.00000
     53       6.3938      0.09698
     54       6.3938      0.09698
     55       6.3938      0.09698
     56       7.1298      0.00000
     57       8.6844      0.00000
     58       8.6844      0.00000
     59       8.6844      0.00000
     60       8.9509      0.00000
     61       8.9509      0.00000
     62       8.9509      0.00000
     63       9.4128      0.00000
     64       9.4128      0.00000
     65       9.4128      0.00000
     66       9.8513      0.00000
     67       9.8513      0.00000
     68       9.8588      0.00000
     69       9.8588      0.00000
     70       9.8588      0.00000
     71      10.1366      0.00000
     72      11.2493      0.00000

 k-point     2 :       0.1111    0.0000    0.0000
  band No.  band energies     occupation 
      1     -29.3980      1.00000
      2     -29.1207      1.00000
      3     -29.1203      1.00000
      4     -29.1203      1.00000
      5     -29.0009      1.00000
      6     -29.0009      1.00000
      7     -28.8128      1.00000
      8     -28.8128      1.00000
      9     -28.8121      1.00000
     10     -28.7993      1.00000
     11     -28.7975      1.00000
     12     -28.7975      1.00000
     13     -11.6870      1.00000
     14     -11.6864      1.00000
     15     -11.6864      1.00000
     16     -11.4773      1.00000
     17     -11.4773      1.00000
     18      -9.4932      1.00000
     19      -7.7704      1.00000
     20      -7.4716      1.00000
     21      -7.4227      1.00000
     22      -7.4227      1.00000
     23      -7.1988      1.00000
     24      -7.1816      1.00000
     25      -7.1816      1.00000
     26      -2.7549      1.00000
     27      -0.9683      1.00000
     28      -0.9683      1.00000
     29      -0.9100      1.00000
     30      -0.3947      1.00000
     31       0.5964      1.00000
     32       0.5964      1.00000
     33       2.1452      1.00000
     34       2.3689      1.00000
     35       2.3689      1.00000
     36       2.6248      1.00000
     37       2.6248      1.00000
     38       2.6359      1.00000
     39       2.9213      1.00000
     40       2.9213      1.00000
     41       2.9978      1.00000
     42       3.1612      1.00000
     43       3.1612      1.00000
     44       3.5181      1.00000
     45       3.5181      1.00000
     46       3.5310      1.00000
     47       3.7341      1.00000
     48       4.7715      1.00000
     49       4.8897      1.00000
     50       4.8897      1.00000
     51       5.0747      1.00000
     52       5.0747      1.00000
     53       6.4447      0.00308
     54       6.4447      0.00308
     55       6.4464      0.00266
     56       7.2002      0.00000
     57       8.6161      0.00000
     58       8.6460      0.00000
     59       8.6460      0.00000
     60       9.0574      0.00000
     61       9.0574      0.00000
     62       9.1974      0.00000
     63       9.2456      0.00000
     64       9.2456      0.00000
     65       9.4284      0.00000
     66       9.6518      0.00000
     67       9.6518      0.00000
     68       9.8134      0.00000
     69      10.3681      0.00000
     70      10.3700      0.00000
     71      10.4242      0.00000
     72      11.1861      0.00000

 k-point     3 :       0.2222    0.0000    0.0000
  band No.  band energies     occupation 
      1     -29.3942      1.00000
      2     -29.1198      1.00000
      3     -29.1185      1.00000
      4     -29.1185      1.00000
      5     -29.0005      1.00000
      6     -29.0005      1.00000
      7     -28.8146      1.00000
      8     -28.8146      1.00000
      9     -28.8121      1.00000
     10     -28.8046      1.00000
     11     -28.7981      1.00000
     12     -28.7981      1.00000
     13     -11.6884      1.00000
     14     -11.6863      1.00000
     15     -11.6863      1.00000
     16     -11.4773      1.00000
     17     -11.4773      1.00000
     18      -9.3561      1.00000
     19      -7.8724      1.00000
     20      -7.6420      1.00000
     21      -7.4291      1.00000
     22      -7.4291      1.00000
     23      -7.1899      1.00000
     24      -7.1806      1.00000
     25      -7.1806      1.00000
     26      -2.4881      1.00000
     27      -0.7761      1.00000
     28      -0.7761      1.00000
     29      -0.5917      1.00000
     30      -0.3293      1.00000
     31       0.5838      1.00000
     32       0.5838      1.00000
     33       1.5270      1.00000
     34       2.0499      1.00000
     35       2.0499      1.00000
     36       2.5218      1.00000
     37       2.6087      1.00000
     38       2.6087      1.00000
     39       2.8304      1.00000
     40       2.8304      1.00000
     41       2.8662      1.00000
     42       3.1340      1.00000
     43       3.1340      1.00000
     44       3.5388      1.00000
     45       3.5403      1.00000
     46       3.5403      1.00000
     47       3.9112      1.00000
     48       4.3062      1.00000
     49       4.7704      1.00000
     50       4.7704      1.00000
     51       5.2499      1.00000
     52       5.2499      1.00000
     53       6.5021      0.00001
     54       6.5409      0.00000
     55       6.5409      0.00000
     56       7.2907      0.00000
     57       8.5589      0.00000
     58       8.5589      0.00000
     59       8.6953      0.00000
     60       8.9492      0.00000
     61       8.9492      0.00000
     62       9.3410      0.00000
     63       9.3410      0.00000
     64       9.4762      0.00000
     65       9.6349      0.00000
     66       9.8726      0.00000
     67       9.8923      0.00000
     68       9.8923      0.00000
     69      10.5735      0.00000
     70      10.5774      0.00000
     71      10.8797      0.00000
     72      11.0160      0.00000

 k-point     4 :       0.3333    0.0000    0.0000
  band No.  band energies     occupation 
      1     -29.3899      1.00000
      2     -29.1188      1.00000
      3     -29.1163      1.00000
      4     -29.1163      1.00000
      5     -28.9999      1.00000
      6     -28.9999      1.00000
      7     -28.8169      1.00000
      8     -28.8169      1.00000
      9     -28.8121      1.00000
     10     -28.8108      1.00000
     11     -28.7986      1.00000
     12     -28.7986      1.00000
     13     -11.6899      1.00000
     14     -11.6862      1.00000
     15     -11.6862      1.00000
     16     -11.4773      1.00000
     17     -11.4773      1.00000
     18      -9.1390      1.00000
     19      -8.1172      1.00000
     20      -7.7755      1.00000
     21      -7.4365      1.00000
     22      -7.4365      1.00000
     23      -7.1793      1.00000
     24      -7.1793      1.00000
     25      -7.1601      1.00000
     26      -2.1350      1.00000
     27      -0.4865      1.00000
     28      -0.4865      1.00000
     29      -0.4480      1.00000
     30       0.0699      1.00000
     31       0.5418      1.00000
     32       0.5418      1.00000
     33       0.9359      1.00000
     34       1.6458      1.00000
     35       1.6458      1.00000
     36       2.3404      1.00000
     37       2.4701      1.00000
     38       2.4701      1.00000
     39       2.7566      1.00000
     40       2.7875      1.00000
     41       2.7875      1.00000
     42       2.9799      1.00000
     43       3.1466      1.00000
     44       3.1467      1.00000
     45       3.7250      1.00000
     46       3.7250      1.00000
     47       4.0740      1.00000
     48       4.2774      1.00000
     49       4.5654      1.00000
     50       4.5654      1.00000
     51       5.3896      1.00000
     52       5.3896      1.00000
     53       6.4693      0.00030
     54       6.6061      0.00000
     55       6.6061      0.00000
     56       7.2898      0.00000
     57       8.4837      0.00000
     58       8.4837      0.00000
     59       8.8428      0.00000
     60       8.9766      0.00000
     61       8.9766      0.00000
     62       9.3696      0.00000
     63       9.3697      0.00000
     64       9.5546      0.00000
     65       9.8985      0.00000
     66      10.1240      0.00000
     67      10.1243      0.00000
     68      10.4915      0.00000
     69      10.5682      0.00000
     70      10.6832      0.00000
     71      10.6877      0.00000
     72      11.3679      0.00000

 k-point     5 :       0.4444    0.0000    0.0000
  band No.  band energies     occupation 
      1     -29.3870      1.00000
      2     -29.1180      1.00000
      3     -29.1149      1.00000
      4     -29.1149      1.00000
      5     -28.9996      1.00000
      6     -28.9996      1.00000
      7     -28.8185      1.00000
      8     -28.8185      1.00000
      9     -28.8149      1.00000
     10     -28.8121      1.00000
     11     -28.7990      1.00000
     12     -28.7990      1.00000
     13     -11.6909      1.00000
     14     -11.6861      1.00000
     15     -11.6861      1.00000
     16     -11.4773      1.00000
     17     -11.4773      1.00000
     18      -8.8757      1.00000
     19      -8.4328      1.00000
     20      -7.8233      1.00000
     21      -7.4413      1.00000
     22      -7.4412      1.00000
     23      -7.1784      1.00000
     24      -7.1784      1.00000
     25      -7.1400      1.00000
     26      -1.8390      1.00000
     27      -0.4511      1.00000
     28      -0.1878      1.00000
     29      -0.1878      1.00000
     30       0.2853      1.00000
     31       0.4355      1.00000
     32       0.4355      1.00000
     33       0.9674      1.00000
     34       1.3550      1.00000
     35       1.3550      1.00000
     36       1.8696      1.00000
     37       2.3447      1.00000
     38       2.3447      1.00000
     39       2.5702      1.00000
     40       2.6972      1.00000
     41       2.7883      1.00000
     42       2.7883      1.00000
     43       3.1994      1.00000
     44       3.1994      1.00000
     45       3.9217      1.00000
     46       3.9217      1.00000
     47       4.1693      1.00000
     48       4.3417      1.00000
     49       4.3417      1.00000
     50       4.3820      1.00000
     51       5.4565      1.00000
     52       5.4565      1.00000
     53       6.4045      0.05451
     54       6.6330      0.00000
     55       6.6330      0.00000
     56       7.2514      0.00000
     57       8.4611      0.00000
     58       8.4611      0.00000
     59       8.9381      0.00000
     60       9.1195      0.00000
     61       9.1195      0.00000
     62       9.3588      0.00000
     63       9.3588      0.00000
     64       9.6359      0.00000
     65       9.8794      0.00000
     66       9.8794      0.00000
     67      10.1635      0.00000
     68      10.3494      0.00000
     69      10.8670      0.00000
     70      11.0894      0.00000
     71      11.0954      0.00000
     72      11.5473      0.00000

 k-point     6 :       0.1111    0.1111    0.0000
  band No.  band energies     occupation 
      1     -29.3975      1.00000
      2     -29.1211      1.00000
      3     -29.1198      1.00000
      4     -29.1198      1.00000
      5     -29.0013      1.00000
      6     -29.0005      1.00000
      7     -28.8128      1.00000
      8     -28.8127      1.00000
      9     -28.8127      1.00000
     10     -28.7993      1.00000
     11     -28.7979      1.00000
     12     -28.7979      1.00000
     13     -11.6872      1.00000
     14     -11.6864      1.00000
     15     -11.6864      1.00000
     16     -11.4773      1.00000
     17     -11.4772      1.00000
     18      -9.4779      1.00000
     19      -7.7787      1.00000
     20      -7.4771      1.00000
     21      -7.4248      1.00000
     22      -7.4248      1.00000
     23      -7.2120      1.00000
     24      -7.1836      1.00000
     25      -7.1836      1.00000
     26      -2.7212      1.00000
     27      -0.9388      1.00000
     28      -0.9105      1.00000
     29      -0.9105      1.00000
     30      -0.3953      1.00000
     31       0.5727      1.00000
     32       0.6354      1.00000
     33       2.1153      1.00000
     34       2.2816      1.00000
     35       2.2816      1.00000
     36       2.6065      1.00000
     37       2.6065      1.00000
     38       2.6980      1.00000
     39       2.8704      1.00000
     40       2.9191      1.00000
     41       3.1060      1.00000
     42       3.1060      1.00000
     43       3.1869      1.00000
     44       3.3883      1.00000
     45       3.5640      1.00000
     46       3.6276      1.00000
     47       3.6276      1.00000
     48       4.7331      1.00000
     49       4.9056      1.00000
     50       4.9056      1.00000
     51       5.0211      1.00000
     52       5.0980      1.00000
     53       6.3387      0.60283
     54       6.5190      0.00000
     55       6.5190      0.00000
     56       7.2591      0.00000
     57       8.5682      0.00000
     58       8.5682      0.00000
     59       8.7768      0.00000
     60       9.0157      0.00000
     61       9.1481      0.00000
     62       9.1481      0.00000
     63       9.2306      0.00000
     64       9.2364      0.00000
     65       9.4229      0.00000
     66       9.4229      0.00000
     67      10.0507      0.00000
     68      10.0510      0.00000
     69      10.0656      0.00000
     70      10.3168      0.00000
     71      10.6970      0.00000
     72      11.1418      0.00000

 k-point     7 :       0.2222    0.1111    0.0000
  band No.  band energies     occupation 
      1     -29.3945      1.00000
      2     -29.1207      1.00000
      3     -29.1183      1.00000
      4     -29.1181      1.00000
      5     -29.0012      1.00000
      6     -28.9999      1.00000
      7     -28.8145      1.00000
      8     -28.8140      1.00000
      9     -28.8127      1.00000
     10     -28.8031      1.00000
     11     -28.7986      1.00000
     12     -28.7985      1.00000
     13     -11.6883      1.00000
     14     -11.6863      1.00000
     15     -11.6863      1.00000
     16     -11.4773      1.00000
     17     -11.4772      1.00000
     18      -9.3715      1.00000
     19      -7.8428      1.00000
     20      -7.5995      1.00000
     21      -7.4473      1.00000
     22      -7.4336      1.00000
     23      -7.2301      1.00000
     24      -7.1812      1.00000
     25      -7.1681      1.00000
     26      -2.5098      1.00000
     27      -0.8114      1.00000
     28      -0.7294      1.00000
     29      -0.6501      1.00000
     30      -0.3702      1.00000
     31       0.5710      1.00000
     32       0.6598      1.00000
     33       1.6143      1.00000
     34       2.0173      1.00000
     35       2.1242      1.00000
     36       2.4774      1.00000
     37       2.5796      1.00000
     38       2.6823      1.00000
     39       2.8120      1.00000
     40       2.8422      1.00000
     41       2.9805      1.00000
     42       3.1296      1.00000
     43       3.1498      1.00000
     44       3.3656      1.00000
     45       3.4603      1.00000
     46       3.7268      1.00000
     47       3.7358      1.00000
     48       4.3995      1.00000
     49       4.7556      1.00000
     50       4.7594      1.00000
     51       5.1510      1.00000
     52       5.3058      1.00000
     53       6.3426      0.55940
     54       6.6062      0.00000
     55       6.6251      0.00000
     56       7.4070      0.00000
     57       8.4999      0.00000
     58       8.5671      0.00000
     59       8.7666      0.00000
     60       8.9854      0.00000
     61       9.0013      0.00000
     62       9.1194      0.00000
     63       9.2746      0.00000
     64       9.4371      0.00000
     65       9.6527      0.00000
     66       9.7365      0.00000
     67      10.0165      0.00000
     68      10.1306      0.00000
     69      10.4573      0.00000
     70      10.5972      0.00000
     71      10.9021      0.00000
     72      11.0246      0.00000

 k-point     8 :       0.3333    0.1111    0.0000
  band No.  band energies     occupation 
      1     -29.3903      1.00000
      2     -29.1196      1.00000
      3     -29.1163      1.00000
      4     -29.1160      1.00000
      5     -29.0008      1.00000
      6     -28.9993      1.00000
      7     -28.8168      1.00000
      8     -28.8161      1.00000
      9     -28.8127      1.00000
     10     -28.8086      1.00000
     11     -28.7993      1.00000
     12     -28.7992      1.00000
     13     -11.6897      1.00000
     14     -11.6862      1.00000
     15     -11.6862      1.00000
     16     -11.4773      1.00000
     17     -11.4773      1.00000
     18      -9.1816      1.00000
     19      -8.0076      1.00000
     20      -7.7743      1.00000
     21      -7.4801      1.00000
     22      -7.4445      1.00000
     23      -7.2114      1.00000
     24      -7.1760      1.00000
     25      -7.1388      1.00000
     26      -2.1844      1.00000
     27      -0.5786      1.00000
     28      -0.4524      1.00000
     29      -0.4294      1.00000
     30      -0.0944      1.00000
     31       0.5726      1.00000
     32       0.6360      1.00000
     33       1.0138      1.00000
     34       1.6546      1.00000
     35       1.8552      1.00000
     36       2.2803      1.00000
     37       2.4680      1.00000
     38       2.5961      1.00000
     39       2.7128      1.00000
     40       2.7253      1.00000
     41       2.8502      1.00000
     42       3.0808      1.00000
     43       3.1198      1.00000
     44       3.1828      1.00000
     45       3.5360      1.00000
     46       3.7123      1.00000
     47       3.9150      1.00000
     48       4.2652      1.00000
     49       4.5676      1.00000
     50       4.5940      1.00000
     51       5.3212      1.00000
     52       5.4574      1.00000
     53       6.4010      0.06656
     54       6.6101      0.00000
     55       6.6803      0.00000
     56       7.4558      0.00000
     57       8.4391      0.00000
     58       8.6095      0.00000
     59       8.7437      0.00000
     60       8.9638      0.00000
     61       9.0104      0.00000
     62       9.2215      0.00000
     63       9.3479      0.00000
     64       9.6797      0.00000
     65       9.7884      0.00000
     66      10.2008      0.00000
     67      10.2366      0.00000
     68      10.3114      0.00000
     69      10.5265      0.00000
     70      10.6741      0.00000
     71      10.6921      0.00000
     72      11.2290      0.00000

 k-point     9 :       0.4444    0.1111    0.0000
  band No.  band energies     occupation 
      1     -29.3869      1.00000
      2     -29.1185      1.00000
      3     -29.1148      1.00000
      4     -29.1145      1.00000
      5     -29.0002      1.00000
      6     -28.9990      1.00000
      7     -28.8185      1.00000
      8     -28.8181      1.00000
      9     -28.8133      1.00000
     10     -28.8127      1.00000
     11     -28.8000      1.00000
     12     -28.7994      1.00000
     13     -11.6908      1.00000
     14     -11.6861      1.00000
     15     -11.6861      1.00000
     16     -11.4773      1.00000
     17     -11.4773      1.00000
     18      -8.9286      1.00000
     19      -8.3084      1.00000
     20      -7.8479      1.00000
     21      -7.5060      1.00000
     22      -7.4522      1.00000
     23      -7.1879      1.00000
     24      -7.1707      1.00000
     25      -7.1165      1.00000
     26      -1.8548      1.00000
     27      -0.4255      1.00000
     28      -0.2569      1.00000
     29      -0.1536      1.00000
     30       0.2359      1.00000
     31       0.5095      1.00000
     32       0.5679      1.00000
     33       0.7784      1.00000
     34       1.3753      1.00000
     35       1.5089      1.00000
     36       2.1037      1.00000
     37       2.1973      1.00000
     38       2.3397      1.00000
     39       2.6200      1.00000
     40       2.6700      1.00000
     41       2.7745      1.00000
     42       2.8341      1.00000
     43       3.1529      1.00000
     44       3.1554      1.00000
     45       3.7069      1.00000
     46       3.8132      1.00000
     47       4.0619      1.00000
     48       4.1751      1.00000
     49       4.4285      1.00000
     50       4.5275      1.00000
     51       5.4386      1.00000
     52       5.5240      1.00000
     53       6.4233      0.01646
     54       6.5886      0.00000
     55       6.6720      0.00000
     56       7.4313      0.00000
     57       8.4443      0.00000
     58       8.4988      0.00000
     59       8.9091      0.00000
     60       9.0696      0.00000
     61       9.1120      0.00000
     62       9.3192      0.00000
     63       9.3949      0.00000
     64       9.6431      0.00000
     65       9.8291      0.00000
     66       9.9933      0.00000
     67      10.2845      0.00000
     68      10.3360      0.00000
     69      10.7839      0.00000
     70      11.0671      0.00000
     71      11.0904      0.00000
     72      11.3779      0.00000

 k-point    10 :      -0.4444    0.1111    0.0000
  band No.  band energies     occupation 
      1     -29.3859      1.00000
      2     -29.1181      1.00000
      3     -29.1143      1.00000
      4     -29.1143      1.00000
      5     -28.9997      1.00000
      6     -28.9993      1.00000
      7     -28.8188      1.00000
      8     -28.8186      1.00000
      9     -28.8148      1.00000
     10     -28.8127      1.00000
     11     -28.8004      1.00000
     12     -28.7993      1.00000
     13     -11.6912      1.00000
     14     -11.6861      1.00000
     15     -11.6861      1.00000
     16     -11.4773      1.00000
     17     -11.4773      1.00000
     18      -8.7767      1.00000
     19      -8.4795      1.00000
     20      -7.8635      1.00000
     21      -7.5187      1.00000
     22      -7.4535      1.00000
     23      -7.1743      1.00000
     24      -7.1674      1.00000
     25      -7.1123      1.00000
     26      -1.7367      1.00000
     27      -0.4266      1.00000
     28      -0.1005      1.00000
     29      -0.0335      1.00000
     30       0.1358      1.00000
     31       0.4183      1.00000
     32       0.5364      1.00000
     33       1.1034      1.00000
     34       1.2583      1.00000
     35       1.3709      1.00000
     36       1.7875      1.00000
     37       2.1352      1.00000
     38       2.3052      1.00000
     39       2.5809      1.00000
     40       2.6353      1.00000
     41       2.7560      1.00000
     42       2.8203      1.00000
     43       3.1215      1.00000
     44       3.2251      1.00000
     45       3.8022      1.00000
     46       3.8535      1.00000
     47       4.0942      1.00000
     48       4.1672      1.00000
     49       4.2750      1.00000
     50       4.5779      1.00000
     51       5.4796      1.00000
     52       5.5237      1.00000
     53       6.4208      0.01953
     54       6.6189      0.00000
     55       6.6300      0.00000
     56       7.4064      0.00000
     57       8.4362      0.00000
     58       8.5022      0.00000
     59       8.9682      0.00000
     60       9.1317      0.00000
     61       9.1716      0.00000
     62       9.3272      0.00000
     63       9.4111      0.00000
     64       9.5923      0.00000
     65       9.7558      0.00000
     66       9.9214      0.00000
     67      10.2469      0.00000
     68      10.4012      0.00000
     69      10.8148      0.00000
     70      11.1425      0.00000
     71      11.1893      0.00000
     72      11.6794      0.00000

 k-point    11 :      -0.3333    0.1111    0.0000
  band No.  band energies     occupation 
      1     -29.3878      1.00000
      2     -29.1185      1.00000
      3     -29.1154      1.00000
      4     -29.1151      1.00000
      5     -28.9999      1.00000
      6     -28.9995      1.00000
      7     -28.8183      1.00000
      8     -28.8171      1.00000
      9     -28.8127      1.00000
     10     -28.8120      1.00000
     11     -28.8003      1.00000
     12     -28.7989      1.00000
     13     -11.6905      1.00000
     14     -11.6861      1.00000
     15     -11.6861      1.00000
     16     -11.4773      1.00000
     17     -11.4773      1.00000
     18      -9.0168      1.00000
     19      -8.2041      1.00000
     20      -7.8340      1.00000
     21      -7.5147      1.00000
     22      -7.4480      1.00000
     23      -7.1770      1.00000
     24      -7.1674      1.00000
     25      -7.1258      1.00000
     26      -1.9572      1.00000
     27      -0.4235      1.00000
     28      -0.3945      1.00000
     29      -0.2111      1.00000
     30       0.2188      1.00000
     31       0.4934      1.00000
     32       0.5586      1.00000
     33       0.7757      1.00000
     34       1.4555      1.00000
     35       1.6352      1.00000
     36       2.1975      1.00000
     37       2.3156      1.00000
     38       2.3710      1.00000
     39       2.5997      1.00000
     40       2.7343      1.00000
     41       2.8438      1.00000
     42       2.8649      1.00000
     43       3.0511      1.00000
     44       3.2352      1.00000
     45       3.6414      1.00000
     46       3.8226      1.00000
     47       4.0609      1.00000
     48       4.1721      1.00000
     49       4.4416      1.00000
     50       4.5596      1.00000
     51       5.4484      1.00000
     52       5.4636      1.00000
     53       6.4767      0.00013
     54       6.5713      0.00000
     55       6.6493      0.00000
     56       7.4025      0.00000
     57       8.4335      0.00000
     58       8.5828      0.00000
     59       8.8734      0.00000
     60       9.0104      0.00000
     61       9.0442      0.00000
     62       9.2492      0.00000
     63       9.4900      0.00000
     64       9.5821      0.00000
     65       9.8702      0.00000
     66      10.0654      0.00000
     67      10.2170      0.00000
     68      10.3908      0.00000
     69      10.7528      0.00000
     70      10.8686      0.00000
     71      11.0212      0.00000
     72      11.4377      0.00000

 k-point    12 :      -0.2222    0.1111    0.0000
  band No.  band energies     occupation 
      1     -29.3918      1.00000
      2     -29.1195      1.00000
      3     -29.1174      1.00000
      4     -29.1168      1.00000
      5     -29.0006      1.00000
      6     -28.9998      1.00000
      7     -28.8164      1.00000
      8     -28.8149      1.00000
      9     -28.8126      1.00000
     10     -28.8068      1.00000
     11     -28.7998      1.00000
     12     -28.7983      1.00000
     13     -11.6892      1.00000
     14     -11.6862      1.00000
     15     -11.6862      1.00000
     16     -11.4773      1.00000
[...]
     23      -7.1923      1.00000
     24      -7.1286      1.00000
     25      -7.1077      1.00000
     26      -1.3485      1.00000
     27      -0.3758      1.00000
     28      -0.2322      1.00000
     29       0.2815      1.00000
     30       0.5749      1.00000
     31       0.7498      1.00000
     32       0.7699      1.00000
     33       1.0639      1.00000
     34       1.1903      1.00000
     35       1.3332      1.00000
     36       1.6865      1.00000
     37       1.7969      1.00000
     38       2.1383      1.00000
     39       2.2958      1.00000
     40       2.4547      1.00000
     41       2.6031      1.00000
     42       2.8140      1.00000
     43       2.9040      1.00000
     44       2.9706      1.00000
     45       3.3958      1.00000
     46       3.5502      1.00000
     47       3.6451      1.00000
     48       3.9101      1.00000
     49       4.1232      1.00000
     50       5.0429      1.00000
     51       5.5758      1.00000
     52       5.7976      1.00000
     53       6.3019      0.90313
     54       6.5302      0.00000
     55       6.8259      0.00000
     56       8.1310      0.00000
     57       8.5423      0.00000
     58       8.6269      0.00000
     59       8.6793      0.00000
     60       9.0400      0.00000
     61       9.1861      0.00000
     62       9.2630      0.00000
     63       9.3325      0.00000
     64       9.4269      0.00000
     65       9.9756      0.00000
     66      10.1794      0.00000
     67      10.2011      0.00000
     68      10.4580      0.00000
     69      11.0326      0.00000
     70      11.1729      0.00000
     71      11.8044      0.00000
     72      12.1827      0.00000


--------------------------------------------------------------------------------------------------------


 soft charge-density along one line, spin component           1
         0         1         2         3         4         5         6         7         8         9
 total charge-density along one line
 
 soft charge-density along one line, spin component           2
         0         1         2         3         4         5         6         7         8         9
 total charge-density along one line
 
 pseudopotential strength for first ion, spin component:           1
-31.959   0.013  -0.013   7.925  -0.010   0.010   0.010  -0.010
  0.013 -31.959   0.013  -0.010   7.925  -0.010  -0.000   0.010
 -0.013   0.013 -31.959   0.010  -0.010   7.925   0.010  -0.000
  7.925  -0.010   0.010   6.153   0.004  -0.004  -0.004   0.004
 -0.010   7.925  -0.010   0.004   6.153   0.004   0.000  -0.004
  0.010  -0.010   7.925  -0.004   0.004   6.153  -0.004   0.000
  0.010  -0.000   0.010  -0.004   0.000  -0.004  -6.443  -0.014
 -0.010   0.010  -0.000   0.004  -0.004   0.000  -0.014  -6.443
 -0.002  -0.004  -0.002  -0.000  -0.001  -0.000   0.005   0.003
 -0.000   0.010  -0.010   0.000  -0.004   0.004  -0.014   0.014
 -0.003   0.000   0.003  -0.001  -0.000   0.001  -0.000  -0.005
  0.012  -0.000   0.012  -0.005   0.000  -0.005  -7.859  -0.016
 -0.012   0.012  -0.000   0.005  -0.005   0.000  -0.016  -7.859
 -0.002  -0.004  -0.002  -0.000  -0.001  -0.000   0.007   0.003
 -0.000   0.012  -0.012   0.000  -0.005   0.005  -0.016   0.016
 -0.004   0.000   0.004  -0.001  -0.000   0.001  -0.000  -0.006
  0.003  -0.003   0.003  -0.004   0.004  -0.004   0.004  -0.004
  0.008  -0.008   0.008  -0.008   0.008  -0.008   0.007  -0.007
 pseudopotential strength for first ion, spin component:           2
-31.959   0.013  -0.013   7.925  -0.010   0.010   0.010  -0.010
  0.013 -31.959   0.013  -0.010   7.925  -0.010  -0.000   0.010
 -0.013   0.013 -31.959   0.010  -0.010   7.925   0.010  -0.000
  7.925  -0.010   0.010   6.153   0.004  -0.004  -0.004   0.004
 -0.010   7.925  -0.010   0.004   6.153   0.004   0.000  -0.004
  0.010  -0.010   7.925  -0.004   0.004   6.153  -0.004   0.000
  0.010  -0.000   0.010  -0.004   0.000  -0.004  -6.444  -0.014
 -0.010   0.010  -0.000   0.004  -0.004   0.000  -0.014  -6.444
 -0.002  -0.004  -0.002  -0.000  -0.001  -0.000   0.005   0.003
 -0.000   0.010  -0.010   0.000  -0.004   0.004  -0.014   0.014
 -0.003   0.000   0.003  -0.001  -0.000   0.001  -0.000  -0.005
  0.012  -0.000   0.012  -0.005   0.000  -0.005  -7.860  -0.016
 -0.012   0.012  -0.000   0.005  -0.005   0.000  -0.016  -7.860
 -0.002  -0.004  -0.002  -0.000  -0.001  -0.000   0.007   0.003
 -0.000   0.012  -0.012   0.000  -0.005   0.005  -0.016   0.016
 -0.004   0.000   0.004  -0.001  -0.000   0.001  -0.000  -0.006
  0.003  -0.003   0.003  -0.004   0.004  -0.004   0.004  -0.004
  0.008  -0.008   0.008  -0.008   0.008  -0.008   0.007  -0.007
 total augmentation occupancy for first ion, spin component:           1
  2.000   0.000   0.000   0.000   0.000   0.000   0.000   0.000   0.000   0.000   0.000   0.000   0.000   0.000   0.000   0.000
  0.000   2.000   0.000   0.000   0.000   0.000   0.000   0.000   0.000   0.000   0.000   0.000   0.000   0.000   0.000   0.000
  0.000   0.000   2.000   0.000   0.000   0.000   0.000   0.000   0.000   0.000   0.000   0.000   0.000   0.000   0.000   0.000
  0.000   0.000   0.000   0.000   0.000   0.000   0.000   0.000   0.000   0.000   0.000   0.000   0.000   0.000   0.000   0.000
  0.000   0.000   0.000   0.000   0.000   0.000   0.000   0.000   0.000   0.000   0.000   0.000   0.000   0.000   0.000   0.000
  0.000   0.000   0.000   0.000   0.000   0.000   0.000   0.000   0.000   0.000   0.000   0.000   0.000   0.000   0.000   0.000
  0.000   0.000   0.000   0.000   0.000   0.000   0.800   0.000   0.000   0.000   0.000   0.000   0.000   0.000   0.000   0.000
  0.000   0.000   0.000   0.000   0.000   0.000   0.000   0.800   0.000   0.000   0.000   0.000   0.000   0.000   0.000   0.000
  0.000   0.000   0.000   0.000   0.000   0.000   0.000   0.000   0.800   0.000   0.000   0.000   0.000   0.000   0.000   0.000
  0.000   0.000   0.000   0.000   0.000   0.000   0.000   0.000   0.000   0.800   0.000   0.000   0.000   0.000   0.000   0.000
  0.000   0.000   0.000   0.000   0.000   0.000   0.000   0.000   0.000   0.000   0.800   0.000   0.000   0.000   0.000   0.000
  0.000   0.000   0.000   0.000   0.000   0.000   0.000   0.000   0.000   0.000   0.000   0.000   0.000   0.000   0.000   0.000
  0.000   0.000   0.000   0.000   0.000   0.000   0.000   0.000   0.000   0.000   0.000   0.000   0.000   0.000   0.000   0.000
  0.000   0.000   0.000   0.000   0.000   0.000   0.000   0.000   0.000   0.000   0.000   0.000   0.000   0.000   0.000   0.000
  0.000   0.000   0.000   0.000   0.000   0.000   0.000   0.000   0.000   0.000   0.000   0.000   0.000   0.000   0.000   0.000
  0.000   0.000   0.000   0.000   0.000   0.000   0.000   0.000   0.000   0.000   0.000   0.000   0.000   0.000   0.000   0.000
  0.000   0.000   0.000   0.000   0.000   0.000   0.000   0.000   0.000   0.000   0.000   0.000   0.000   0.000   0.000   0.000
  0.000   0.000   0.000   0.000   0.000   0.000   0.000   0.000   0.000   0.000   0.000   0.000   0.000   0.000   0.000   0.000
 total augmentation occupancy for first ion, spin component:           2
  0.182   0.000   0.000   0.000   0.000   0.000   0.000   0.000   0.000   0.000   0.000   0.000   0.000   0.000   0.000   0.000
  0.000   0.182   0.000   0.000   0.000   0.000   0.000   0.000   0.000   0.000   0.000   0.000   0.000   0.000   0.000   0.000
  0.000   0.000   0.182   0.000   0.000   0.000   0.000   0.000   0.000   0.000   0.000   0.000   0.000   0.000   0.000   0.000
  0.000   0.000   0.000   0.000   0.000   0.000   0.000   0.000   0.000   0.000   0.000   0.000   0.000   0.000   0.000   0.000
  0.000   0.000   0.000   0.000   0.000   0.000   0.000   0.000   0.000   0.000   0.000   0.000   0.000   0.000   0.000   0.000
  0.000   0.000   0.000   0.000   0.000   0.000   0.000   0.000   0.000   0.000   0.000   0.000   0.000   0.000   0.000   0.000
  0.000   0.000   0.000   0.000   0.000   0.000   0.073   0.000   0.000   0.000   0.000   0.000   0.000   0.000   0.000   0.000
  0.000   0.000   0.000   0.000   0.000   0.000   0.000   0.073   0.000   0.000   0.000   0.000   0.000   0.000   0.000   0.000
  0.000   0.000   0.000   0.000   0.000   0.000   0.000   0.000   0.073   0.000   0.000   0.000   0.000   0.000   0.000   0.000
  0.000   0.000   0.000   0.000   0.000   0.000   0.000   0.000   0.000   0.073   0.000   0.000   0.000   0.000   0.000   0.000
  0.000   0.000   0.000   0.000   0.000   0.000   0.000   0.000   0.000   0.000   0.073   0.000   0.000   0.000   0.000   0.000
  0.000   0.000   0.000   0.000   0.000   0.000   0.000   0.000   0.000   0.000   0.000   0.000   0.000   0.000   0.000   0.000
  0.000   0.000   0.000   0.000   0.000   0.000   0.000   0.000   0.000   0.000   0.000   0.000   0.000   0.000   0.000   0.000
  0.000   0.000   0.000   0.000   0.000   0.000   0.000   0.000   0.000   0.000   0.000   0.000   0.000   0.000   0.000   0.000
  0.000   0.000   0.000   0.000   0.000   0.000   0.000   0.000   0.000   0.000   0.000   0.000   0.000   0.000   0.000   0.000
  0.000   0.000   0.000   0.000   0.000   0.000   0.000   0.000   0.000   0.000   0.000   0.000   0.000   0.000   0.000   0.000
  0.000   0.000   0.000   0.000   0.000   0.000   0.000   0.000   0.000   0.000   0.000   0.000   0.000   0.000   0.000   0.000
  0.000   0.000   0.000   0.000   0.000   0.000   0.000   0.000   0.000   0.000   0.000   0.000   0.000   0.000   0.000   0.000


------------------------ aborting loop because EDIFF is reached ----------------------------------------


 


 total charge     
 
# of ion     s       p       d       tot
----------------------------------------
  1        0.318   6.213   2.347   8.879
  2        0.317   6.213   2.354   8.884
  3        0.315   6.207   2.474   8.997
  4        0.318   6.213   2.365   8.895
  5        0.879   0.869  10.108  11.856
  6        1.476   2.448   0.087   4.011
  7        1.475   2.443   0.085   4.004
  8        1.470   2.411   0.077   3.958
  9        1.474   2.442   0.086   4.002
 10        1.434   2.519   0.054   4.006
 11        1.436   2.506   0.055   3.997
 12        1.445   2.465   0.056   3.967
 13        1.436   2.510   0.054   4.000
------------------------------------------------
tot       13.792  45.460  20.203  79.455
 


 magnetization (x)
 
# of ion     s       p       d       tot
----------------------------------------
  1       -0.000  -0.000  -0.001  -0.001
  2       -0.000  -0.000  -0.001  -0.001
  3       -0.000  -0.000  -0.001  -0.001
  4       -0.000  -0.000  -0.001  -0.001
  5       -0.000  -0.000  -0.000  -0.000
  6       -0.000  -0.000  -0.000  -0.000
  7       -0.000  -0.000  -0.000  -0.000
  8       -0.000  -0.000  -0.000  -0.000
  9       -0.000  -0.000  -0.000  -0.000
 10       -0.000  -0.000  -0.000  -0.000
 11       -0.000  -0.000  -0.000  -0.000
 12       -0.000  -0.000  -0.000  -0.000
 13       -0.000  -0.000  -0.000  -0.000
------------------------------------------------
tot       -0.000  -0.001  -0.003  -0.004
 
    CHARGE:  cpu time    0.4339: real time    0.4442
    FORLOC:  cpu time    0.0030: real time    0.0057
    FORNL :  cpu time    2.0407: real time    2.0495
    STRESS:  cpu time    4.3473: real time    4.3683
    FORCOR:  cpu time    0.0920: real time    0.0934
    FORHAR:  cpu time    0.0150: real time    0.0183
    OFIELD:  cpu time    0.0000: real time    0.0037

  FORCE on cell =-STRESS in cart. coord.  units (eV):
  Direction    XX          YY          ZZ          XY          YZ          ZX
  --------------------------------------------------------------------------------------
  Alpha Z   590.10287   590.10287   590.10287
  Ewald   -2157.96651 -2157.96651 -2157.96651     0.00000     0.00000     0.00000
  Hartree   591.05725   591.05725   591.05725     0.00000     0.00000     0.00000
  E(xc)    -450.83263  -450.83263  -450.83263     0.00000     0.00000     0.00000
  Local     -59.35181   -59.35181   -59.35181     0.00015     0.00015     0.00015
  n-local   167.82381   167.36096   172.95910     1.33459    -1.02876     0.62472
  augment   175.72631   175.72631   175.72631    -0.00013    -0.00013    -0.00013
  Kinetic  1175.62963  1178.51535  1157.95548     4.74698    -5.77664     4.03310
  Fock        0.00000     0.00000     0.00000     0.00000     0.00000     0.00000
  -------------------------------------------------------------------------------------
  Total      28.81692    28.81692    28.81692     0.00000    -0.00000     0.00000
  in kB     185.01209   185.01209   185.01209     0.00000    -0.00000     0.00000
  external pressure =      185.01 kB  Pullay stress =        0.00 kB


 VOLUME and BASIS-vectors are now :
 -----------------------------------------------------------------------------
  energy-cutoff  :      520.00
  volume of cell :      249.55
      direct lattice vectors                 reciprocal lattice vectors
     0.000000000  4.997000000  4.997000000    -0.100060036  0.100060036  0.100060036
     4.997000000  0.000000000  4.997000000     0.100060036 -0.100060036  0.100060036
     4.997000000  4.997000000  0.000000000     0.100060036  0.100060036 -0.100060036

  length of vectors
     7.066825171  7.066825171  7.066825171     0.173309066  0.173309066  0.173309066


 FORCES acting on ions
    electron-ion (+dipol)            ewald-force                    non-local-force                 convergence-correction
 -----------------------------------------------------------------------------------------------
   0.101E+03 0.101E+03 -.101E+03   -.100E+03 -.100E+03 0.100E+03   -.911E+00 -.911E+00 0.911E+00   0.194E-02 0.194E-02 -.194E-02
   0.101E+03 -.101E+03 0.101E+03   -.100E+03 0.100E+03 -.100E+03   -.911E+00 0.911E+00 -.911E+00   0.194E-02 -.194E-02 0.194E-02
   -.101E+03 0.101E+03 0.101E+03   0.100E+03 -.100E+03 -.100E+03   0.911E+00 -.911E+00 -.911E+00   -.194E-02 0.194E-02 0.194E-02
   -.101E+03 -.101E+03 -.101E+03   0.100E+03 0.100E+03 0.100E+03   0.911E+00 0.911E+00 0.911E+00   -.194E-02 -.194E-02 -.194E-02
   -.530E-06 -.530E-06 -.531E-06   0.280E-11 0.271E-11 0.276E-11   -.833E-16 -.111E-15 -.781E-16   -.203E-08 -.203E-08 -.190E-08
   -.118E+03 -.118E+03 0.118E+03   0.118E+03 0.118E+03 -.118E+03   0.197E+00 0.197E+00 -.197E+00   0.856E-02 0.856E-02 -.856E-02
   -.118E+03 0.118E+03 -.118E+03   0.118E+03 -.118E+03 0.118E+03   0.197E+00 -.197E+00 0.197E+00   0.856E-02 -.856E-02 0.856E-02
   0.118E+03 -.118E+03 -.118E+03   -.118E+03 0.118E+03 0.118E+03   -.197E+00 0.197E+00 0.197E+00   -.856E-02 0.856E-02 0.856E-02
   0.118E+03 0.118E+03 0.118E+03   -.118E+03 -.118E+03 -.118E+03   -.197E+00 -.197E+00 -.197E+00   -.856E-02 -.856E-02 -.856E-02
   -.774E+01 -.774E+01 0.774E+01   0.846E+01 0.846E+01 -.846E+01   -.656E+00 -.656E+00 0.656E+00   -.429E-02 -.429E-02 0.429E-02
   -.774E+01 0.774E+01 -.774E+01   0.846E+01 -.846E+01 0.846E+01   -.656E+00 0.656E+00 -.656E+00   -.429E-02 0.429E-02 -.429E-02
   0.774E+01 -.774E+01 -.774E+01   -.846E+01 0.846E+01 0.846E+01   0.656E+00 -.656E+00 -.656E+00   0.429E-02 -.429E-02 -.429E-02
   0.774E+01 0.774E+01 0.774E+01   -.846E+01 -.846E+01 -.846E+01   0.656E+00 0.656E+00 0.656E+00   0.429E-02 0.429E-02 0.429E-02
 -----------------------------------------------------------------------------------------------
   -.372E-06 -.372E-06 -.391E-06   -.657E-13 -.142E-13 0.444E-13   -.122E-14 -.777E-15 -.666E-15   -.143E-07 -.143E-07 -.141E-07
 
 
 POSITION                                       TOTAL-FORCE (eV/Angst)
 -----------------------------------------------------------------------------------
      3.96162      3.96162      6.03238        -0.245899     -0.245899      0.245899
      3.96162      6.03238      3.96162        -0.245899      0.245899     -0.245899
      6.03238      3.96162      3.96162         0.245899     -0.245899     -0.245899
      6.03238      6.03238      6.03238         0.245899      0.245899      0.245899
      0.00000      0.00000      0.00000         0.000000      0.000000      0.000000
      6.39616      6.39616      3.59784         0.542027      0.542027     -0.542027
      6.39616      3.59784      6.39616         0.542027     -0.542027      0.542027
      3.59784      6.39616      6.39616        -0.542027      0.542027      0.542027
      3.59784      3.59784      3.59784        -0.542027     -0.542027     -0.542027
      6.33020      6.33020      8.66080         0.055567      0.055567     -0.055567
      6.33020      8.66080      6.33020         0.055567     -0.055567      0.055567
      8.66080      6.33020      6.33020        -0.055567      0.055567      0.055567
      8.66080      8.66080      8.66080        -0.055567     -0.055567     -0.055567
 -----------------------------------------------------------------------------------
    total drift:                               -0.000000     -0.000000     -0.000000


--------------------------------------------------------------------------------------------------------



  FREE ENERGIE OF THE ION-ELECTRON SYSTEM (eV)
  ---------------------------------------------------
  free  energy   TOTEN  =       -78.86852439 eV

  energy  without entropy=      -78.86016973  energy(sigma->0) =      -78.86434706
 


--------------------------------------------------------------------------------------------------------


    POTLOK:  cpu time    0.2740: real time    0.2784


--------------------------------------------------------------------------------------------------------


     LOOP+:  cpu time   57.8752: real time   58.4286
    4ORBIT:  cpu time    0.0000: real time    0.0000
 


 total charge     
 
# of ion     s       p       d       tot
----------------------------------------
  1        0.318   6.213   2.347   8.879
  2        0.317   6.213   2.354   8.884
  3        0.315   6.207   2.474   8.997
  4        0.318   6.213   2.365   8.895
  5        0.879   0.869  10.108  11.856
  6        1.476   2.448   0.087   4.011
  7        1.475   2.443   0.085   4.004
  8        1.470   2.411   0.077   3.958
  9        1.474   2.442   0.086   4.002
 10        1.434   2.519   0.054   4.006
 11        1.436   2.506   0.055   3.997
 12        1.445   2.465   0.056   3.967
 13        1.436   2.510   0.054   4.000
------------------------------------------------
tot       13.792  45.460  20.203  79.455
 


 magnetization (x)
 
# of ion     s       p       d       tot
----------------------------------------
  1       -0.000  -0.000  -0.001  -0.001
  2       -0.000  -0.000  -0.001  -0.001
  3       -0.000  -0.000  -0.001  -0.001
  4       -0.000  -0.000  -0.001  -0.001
  5       -0.000  -0.000  -0.000  -0.000
  6       -0.000  -0.000  -0.000  -0.000
  7       -0.000  -0.000  -0.000  -0.000
  8       -0.000  -0.000  -0.000  -0.000
  9       -0.000  -0.000  -0.000  -0.000
 10       -0.000  -0.000  -0.000  -0.000
 11       -0.000  -0.000  -0.000  -0.000
 12       -0.000  -0.000  -0.000  -0.000
 13       -0.000  -0.000  -0.000  -0.000
------------------------------------------------
tot       -0.000  -0.001  -0.003  -0.004
 

 total amount of memory used by VASP on root node    53097. kBytes
========================================================================

   base      :      30000. kBytes
   nonl-proj :       8644. kBytes
   fftplans  :       3068. kBytes
   grid      :       3259. kBytes
   one-center:         62. kBytes
   wavefun   :       8064. kBytes
 
  
  
 General timing and accounting informations for this job:
 ========================================================
  
                  Total CPU time used (sec):       71.704
                            User time (sec):       63.184
                          System time (sec):        8.520
                         Elapsed time (sec):       73.024
  
                   Maximum memory used (kb):      179276.
                   Average memory used (kb):           0.
  
                          Minor page faults:      1283941
                          Major page faults:          362
                 Voluntary context switches:         9775
